    2    2    1    1
  0.3100466E+02  0.4442806E-09  0.4442806E-09  0.4442806E-09  0.5000000E-15
  1.000000000000000E-004
  CAR 
 unknown system                          
   22  145   15
 
  0.3742002E-15  0.3742002E-15  0.3742002E-15  0.2441406E-03
   1      -29.706513
   2       -9.424007
   3       -9.424006
   4       -9.424006
   5       -0.247096
   6       -0.247095
   7       -0.040995
   8       -0.040990
   9       -0.040990
  10        0.045568
  11        7.696022
  12        7.696094
  13        7.696148
  14        8.594771
  15        8.713886
 
  0.6250000E-01  0.3712308E-15  0.3712308E-15  0.1953125E-02
   1      -29.705526
   2       -9.450761
   3       -9.429520
   4       -9.429519
   5       -0.226976
   6       -0.226976
   7       -0.035557
   8       -0.031333
   9       -0.031328
  10        0.131093
  11        7.422840
  12        7.669890
  13        7.670201
  14        8.531758
  15        8.644983
 
  0.1250000E+00  0.3677614E-15  0.3677614E-15  0.1953125E-02
   1      -29.702722
   2       -9.525488
   3       -9.445156
   4       -9.445154
   5       -0.169075
   6       -0.169075
   7       -0.019434
   8       -0.003718
   9       -0.003715
  10        0.379606
  11        6.912812
  12        7.501855
  13        7.501990
  14        8.320288
  15        8.350373
 
  0.1875000E+00  0.3747003E-15  0.3747003E-15  0.1953125E-02
   1      -29.698521
   2       -9.633510
   3       -9.468349
   4       -9.468347
   5       -0.080499
   6       -0.080497
   7        0.007632
   8        0.038158
   9        0.038161
  10        0.767424
  11        6.355592
  12        7.126289
  13        7.126297
  14        8.349735
  15        8.351024
 
  0.2500000E+00  0.4024558E-15  0.4024558E-15  0.1953125E-02
   1      -29.693556
   2       -9.755630
   3       -9.495399
   4       -9.495397
   5        0.026904
   6        0.026909
   7        0.044578
   8        0.088847
   9        0.088847
  10        1.258160
  11        5.803061
  12        6.691050
  13        6.691058
  14        8.474368
  15        8.534181
 
  0.3125000E+00  0.4163336E-15  0.4163336E-15  0.1953125E-02
   1      -29.688584
   2       -9.872603
   3       -9.522130
   4       -9.522128
   5        0.087672
   6        0.127794
   7        0.127813
   8        0.151330
   9        0.151344
  10        1.804364
  11        5.285310
  12        6.294360
  13        6.294371
  14        8.514032
  15        8.805940
 
  0.3750000E+00  0.3885781E-15  0.3885781E-15  0.1953125E-02
   1      -29.684361
   2       -9.968131
   3       -9.544545
   4       -9.544543
   5        0.129725
   6        0.177860
   7        0.177871
   8        0.244660
   9        0.244665
  10        2.345680
  11        4.825636
  12        5.981489
  13        5.981499
  14        8.645590
  15        9.135990
 
  0.4375000E+00  0.3330669E-15  0.3330669E-15  0.1953125E-02
   1      -29.681537
   2      -10.030256
   3       -9.559399
   4       -9.559397
   5        0.161013
   6        0.207605
   7        0.207614
   8        0.313625
   9        0.313627
  10        2.796295
  11        4.458146
  12        5.781150
  13        5.781162
  14        8.860640
  15        9.495488
 
  0.5000000E+00  0.3608225E-15  0.3608225E-15  0.9765625E-03
   1      -29.680543
   2      -10.051760
   3       -9.564588
   4       -9.564586
   5        0.172657
   6        0.217980
   7        0.217987
   8        0.338551
   9        0.338553
  10        2.995731
  11        4.293530
  12        5.712106
  13        5.712118
  14        8.998763
  15        9.767437
 
  0.6250000E-01  0.6250000E-01  0.3742002E-15  0.1464844E-02
   1      -29.705203
   2       -9.456955
   3       -9.432461
   4       -9.432461
   5       -0.241488
   6       -0.208793
   7       -0.051252
   8       -0.019610
   9       -0.019607
  10        0.167936
  11        7.481049
  12        7.599711
  13        7.599807
  14        8.087839
  15        8.851142
 
  0.1250000E+00  0.6250000E-01  0.3677614E-15  0.5859375E-02
   1      -29.703018
   2       -9.513083
   3       -9.445702
   4       -9.444893
   5       -0.216286
   6       -0.160769
   7       -0.052877
   8        0.007151
   9        0.009368
  10        0.375723
  11        7.081025
  12        7.447315
  13        7.484522
  14        7.814859
  15        8.826945
 
  0.1875000E+00  0.6250000E-01  0.3747003E-15  0.5859375E-02
   1      -29.699301
   2       -9.607000
   3       -9.467071
   4       -9.465772
   5       -0.154674
   6       -0.077935
   7       -0.036771
   8        0.044387
   9        0.051579
  10        0.723020
  11        6.521932
  12        7.025231
  13        7.251452
  14        7.934804
  15        8.745928
 
  0.2500000E+00  0.6250000E-01  0.3747003E-15  0.5859375E-02
   1      -29.694611
   2       -9.720843
   3       -9.493141
   4       -9.492435
   5       -0.064214
   6       -0.009170
   7        0.032561
   8        0.088554
   9        0.100875
  10        1.178412
  11        5.937038
  12        6.624563
  13        6.906951
  14        8.130020
  15        8.731426
 
  0.3125000E+00  0.6250000E-01  0.3885781E-15  0.5859375E-02
   1      -29.689662
   2       -9.835921
   3       -9.520751
   4       -9.519848
   5        0.035400
   6        0.043646
   7        0.132260
   8        0.144958
   9        0.149989
  10        1.702606
  11        5.381748
  12        6.281464
  13        6.531528
  14        8.343526
  15        8.751914
 
  0.3750000E+00  0.6250000E-01  0.3885781E-15  0.5859375E-02
   1      -29.685207
   2       -9.935491
   3       -9.546415
   4       -9.543168
   5        0.085911
   6        0.152922
   7        0.172319
   8        0.192606
   9        0.240048
  10        2.245220
  11        4.882425
  12        6.017821
  13        6.193180
  14        8.531303
  15        8.977011
 
  0.4375000E+00  0.6250000E-01  0.3885781E-15  0.5859375E-02
   1      -29.681930
   2      -10.006553
   3       -9.565657
   4       -9.559699
   5        0.133896
   6        0.198304
   7        0.213329
   8        0.255301
   9        0.301914
  10        2.740579
  11        4.458895
  12        5.851943
  13        5.935562
  14        8.736799
  15        9.313482
 
  0.5000000E+00  0.6250000E-01  0.3608225E-15  0.5859375E-02
   1      -29.680330
   2      -10.040563
   3       -9.575721
   4       -9.567084
   5        0.166415
   6        0.208524
   7        0.222435
   8        0.316943
   9        0.318788
  10        3.068190
  11        4.180938
  12        5.788283
  13        5.791871
  14        8.953320
  15        9.629796
 
 -0.4375000E+00  0.6250000E-01  0.3330669E-15  0.5859375E-02
   1      -29.680655
   2      -10.033645
   3       -9.575180
   4       -9.564296
   5        0.165495
   6        0.210284
   7        0.211028
   8        0.282888
   9        0.338442
  10        2.997324
  11        4.247306
  12        5.769963
  13        5.835392
  14        8.948522
  15        9.428564
 
 -0.3750000E+00  0.6250000E-01  0.3608225E-15  0.5859375E-02
   1      -29.682857
   2       -9.986599
   3       -9.564087
   4       -9.551725
   5        0.133382
   6        0.179965
   7        0.194953
   8        0.216740
   9        0.308621
  10        2.593316
  11        4.597879
  12        5.886760
  13        5.975002
  14        8.774918
  15        9.019613
 
 -0.3125000E+00  0.6250000E-01  0.3885781E-15  0.5859375E-02
   1      -29.686596
   2       -9.904903
   3       -9.543968
   4       -9.531151
   5        0.083169
   6        0.107484
   7        0.136495
   8        0.183338
   9        0.235376
  10        2.068653
  11        5.059210
  12        6.131961
  13        6.197343
  14        8.658734
  15        8.662238
 
 -0.2500000E+00  0.6250000E-01  0.3885781E-15  0.5859375E-02
   1      -29.691298
   2       -9.798669
   3       -9.517658
   4       -9.505536
   5       -0.010699
   6        0.046787
   7        0.086431
   8        0.133456
   9        0.142890
  10        1.519531
  11        5.585124
  12        6.479404
  13        6.488881
  14        8.348718
  15        8.649006
 
 -0.1875000E+00  0.6250000E-01  0.4024558E-15  0.5859375E-02
   1      -29.696244
   2       -9.682328
   3       -9.488964
   4       -9.478678
   5       -0.108476
   6        0.006627
   7        0.016429
   8        0.041915
   9        0.094102
  10        1.007348
  11        6.152432
  12        6.789672
  13        6.934555
  14        8.100036
  15        8.691285
 
 -0.1250000E+00  0.6250000E-01  0.3608225E-15  0.5859375E-02
   1      -29.700683
   2       -9.573615
   3       -9.462135
   4       -9.454689
   5       -0.182438
   6       -0.088884
   7       -0.020935
   8        0.000991
   9        0.044237
  10        0.580331
  11        6.722688
  12        7.095099
  13        7.437478
  14        7.917848
  15        8.749396
 
 -0.6250000E-01  0.6250000E-01  0.3677614E-15  0.2929688E-02
   1      -29.703942
   2       -9.491324
   3       -9.441113
   4       -9.437364
   5       -0.221830
   6       -0.174039
   7       -0.034669
   8       -0.024158
   9        0.000254
  10        0.277049
  11        7.192610
  12        7.399360
  13        7.739894
  14        8.028285
  15        8.669675
 
  0.1250000E+00  0.1250000E+00  0.3742002E-15  0.1464844E-02
   1      -29.701525
   2       -9.543785
   3       -9.456246
   4       -9.456245
   5       -0.225492
   6       -0.146461
   7       -0.080468
   8        0.038445
   9        0.038449
  10        0.556139
  11        7.065494
  12        7.114541
  13        7.441286
  14        7.441288
  15        9.217893
 
  0.1875000E+00  0.1250000E+00  0.3677614E-15  0.5859375E-02
   1      -29.698464
   2       -9.613624
   3       -9.475264
   4       -9.475063
   5       -0.196360
   6       -0.094801
   7       -0.088187
   8        0.077599
   9        0.079381
  10        0.867951
  11        6.489198
  12        6.822606
  13        7.331757
  14        7.551367
  15        9.192927
 
  0.2500000E+00  0.1250000E+00  0.3747003E-15  0.5859375E-02
   1      -29.694302
   2       -9.706959
   3       -9.501781
   4       -9.499134
   5       -0.132733
   6       -0.077261
   7       -0.004465
   8        0.120428
   9        0.126130
  10        1.274829
  11        5.899578
  12        6.512815
  13        7.116692
  14        7.766790
  15        9.150301
 
  0.3125000E+00  0.1250000E+00  0.3608225E-15  0.5859375E-02
   1      -29.689667
   2       -9.807028
   3       -9.532717
   4       -9.524682
   5       -0.044836
   6       -0.042300
   7        0.099398
   8        0.161657
   9        0.171627
  10        1.746040
  11        5.349296
  12        6.254776
  13        6.818166
  14        8.015379
  15        9.122534
 
  0.3750000E+00  0.1250000E+00  0.4024558E-15  0.5859375E-02
   1      -29.685266
   2       -9.898520
   3       -9.563416
   4       -9.547826
   5        0.004114
   6        0.063701
   7        0.189205
   8        0.197463
   9        0.208841
  10        2.246713
  11        4.854009
  12        6.071652
  13        6.499358
  14        8.269393
  15        9.202442
 
  0.4375000E+00  0.1250000E+00  0.3885781E-15  0.5859375E-02
   1      -29.681770
   2       -9.968891
   3       -9.589198
   4       -9.565151
   5        0.062486
   6        0.170553
   7        0.211762
   8        0.232188
   9        0.251515
  10        2.739462
  11        4.414528
  12        5.970234
  13        6.216574
  14        8.513250
  15        9.425198
 
  0.5000000E+00  0.1250000E+00  0.3885781E-15  0.5859375E-02
   1      -29.679715
   2      -10.009281
   3       -9.606199
   4       -9.574172
   5        0.120074
   6        0.209622
   7        0.234446
   8        0.263230
   9        0.265048
  10        3.183162
  11        4.029087
  12        5.933349
  13        6.009571
  14        8.782181
  15        9.584712
 
 -0.4375000E+00  0.1250000E+00  0.3885781E-15  0.5859375E-02
   1      -29.679418
   2      -10.014941
   3       -9.611854
   4       -9.573620
   5        0.162329
   6        0.186360
   7        0.221934
   8        0.231608
   9        0.323411
  10        3.355772
  11        3.885021
  12        5.905876
  13        5.932781
  14        9.056875
  15        9.401346
 
 -0.3750000E+00  0.1250000E+00  0.3608225E-15  0.5859375E-02
   1      -29.680925
   2       -9.985396
   3       -9.605167
   4       -9.563583
   5        0.130027
   6        0.154982
   7        0.191841
   8        0.209515
   9        0.338219
  10        2.981256
  11        4.247190
  12        5.922291
  13        5.962382
  14        8.950048
  15        9.066516
 
 -0.3125000E+00  0.1250000E+00  0.3330669E-15  0.5859375E-02
   1      -29.684002
   2       -9.924433
   3       -9.586806
   4       -9.545480
   5        0.044884
   6        0.102892
   7        0.150054
   8        0.209107
   9        0.304655
  10        2.467090
  11        4.730159
  12        6.037869
  13        6.063693
  14        8.578891
  15        9.030430
 
 -0.2500000E+00  0.1250000E+00  0.4440892E-15  0.5859375E-02
   1      -29.688177
   2       -9.840002
   3       -9.559051
   4       -9.521919
   5       -0.047018
   6        0.053923
   7        0.103240
   8        0.189055
   9        0.229146
  10        1.919044
  11        5.273792
  12        6.165947
  13        6.322504
  14        8.266411
  15        9.062443
 
 -0.1875000E+00  0.1250000E+00  0.3885781E-15  0.5859375E-02
   1      -29.692814
   2       -9.743787
   3       -9.525600
   4       -9.496377
   5       -0.123723
   6        0.014462
   7        0.058613
   8        0.126315
   9        0.150311
  10        1.391906
  11        5.868027
  12        6.335751
  13        6.679426
  14        8.024745
  15        9.077781
 
 -0.1250000E+00  0.1250000E+00  0.4024558E-15  0.2929688E-02
   1      -29.697205
   2       -9.650122
   3       -9.491310
   4       -9.472731
   5       -0.171031
   6       -0.010999
   7        0.014386
   8        0.022815
   9        0.099365
  10        0.932218
  11        6.481007
  12        6.539207
  13        7.096500
  14        7.872939
  15        8.850531
 
  0.1875000E+00  0.1875000E+00  0.3742002E-15  0.1464844E-02
   1      -29.696138
   2       -9.656219
   3       -9.491034
   4       -9.491033
   5       -0.201389
   6       -0.124056
   7       -0.085439
   8        0.117486
   9        0.117490
  10        1.138753
  11        6.098242
  12        6.770816
  13        7.358621
  14        7.358626
  15        9.689163
 
  0.2500000E+00  0.1875000E+00  0.3747003E-15  0.5859375E-02
   1      -29.692677
   2       -9.723273
   3       -9.514595
   4       -9.512423
   5       -0.170058
   6       -0.136214
   7       -0.035423
   8        0.158904
   9        0.160210
  10        1.483570
  11        5.666798
  12        6.530353
  13        7.295666
  14        7.484773
  15        9.576336
 
  0.3125000E+00  0.1875000E+00  0.3747003E-15  0.5859375E-02
   1      -29.688598
   2       -9.799386
   3       -9.546529
   4       -9.535867
   5       -0.123050
   6       -0.106451
   7        0.042858
   8        0.196712
   9        0.201059
  10        1.867493
  11        5.260227
  12        6.278710
  13        7.122301
  14        7.742346
  15        9.560550
 
  0.3750000E+00  0.1875000E+00  0.3747003E-15  0.5859375E-02
   1      -29.684529
   2       -9.871413
   3       -9.583193
   4       -9.557782
   5       -0.085762
   6       -0.018175
   7        0.122591
   8        0.225415
   9        0.233685
  10        2.264459
  11        4.889916
  12        6.111667
  13        6.870496
  14        8.036083
  15        9.604914
 
  0.4375000E+00  0.1875000E+00  0.4024558E-15  0.5859375E-02
   1      -29.681086
   2       -9.929147
   3       -9.618741
   4       -9.574907
   5       -0.029261
   6        0.083914
   7        0.175532
   8        0.240225
   9        0.252939
  10        2.658618
  11        4.551007
  12        6.041990
  13        6.598552
  14        8.308320
  15        9.677371
 
  0.5000000E+00  0.1875000E+00  0.3885781E-15  0.5859375E-02
   1      -29.678796
   2       -9.965519
   3       -9.647054
   4       -9.584754
   5        0.037676
   6        0.184433
   7        0.185872
   8        0.237774
   9        0.255830
  10        3.048117
  11        4.224760
  12        6.026337
  13        6.356061
  14        8.539084
  15        9.731404
 
 -0.4375000E+00  0.1875000E+00  0.3330669E-15  0.5859375E-02
   1      -29.678011
   2       -9.976835
   3       -9.662929
   4       -9.585923
   5        0.100626
   6        0.154230
   7        0.215459
   8        0.240806
   9        0.272900
  10        3.436942
  11        3.884007
  12        5.994770
  13        6.177915
  14        8.803260
  15        9.385880
 
 -0.3750000E+00  0.1875000E+00  0.3330669E-15  0.5859375E-02
   1      -29.678853
   2       -9.962841
   3       -9.662871
   4       -9.578263
   5        0.081134
   6        0.158129
   7        0.183704
   8        0.212426
   9        0.326955
  10        3.428572
  11        3.902617
  12        5.933855
  13        6.087891
  14        8.935644
  15        9.414177
 
 -0.3125000E+00  0.1875000E+00  0.3608225E-15  0.5859375E-02
   1      -29.681190
   2       -9.926483
   3       -9.645676
   4       -9.562867
   5        0.008465
   6        0.122732
   7        0.173631
   8        0.203263
   9        0.338038
  10        2.946727
  11        4.357849
  12        5.900151
  13        6.099737
  14        8.576844
  15        9.487061
 
 -0.2500000E+00  0.1875000E+00  0.3608225E-15  0.5859375E-02
   1      -29.684669
   2       -9.873207
   3       -9.613081
   4       -9.541961
   5       -0.059686
   6        0.076017
   7        0.130826
   8        0.210403
   9        0.302465
  10        2.408362
  11        4.866870
  12        5.938353
  13        6.215039
  14        8.292436
  15        9.516327
 
 -0.1875000E+00  0.1875000E+00  0.3885781E-15  0.2929688E-02
   1      -29.688749
   2       -9.809878
   3       -9.570257
   4       -9.518621
   5       -0.107160
   6        0.038072
   7        0.090542
   8        0.191587
   9        0.226959
  10        1.873383
  11        5.401762
  12        6.064589
  13        6.419771
  14        8.101025
  15        9.436356
 
  0.2500000E+00  0.2500000E+00  0.3742002E-15  0.1464844E-02
   1      -29.689978
   2       -9.765123
   3       -9.530891
   4       -9.530890
   5       -0.175276
   6       -0.172720
   7       -0.031765
   8        0.197919
   9        0.197923
  10        1.738140
  11        5.413157
  12        6.484756
  13        7.405128
  14        7.405131
  15        9.853485
 
  0.3125000E+00  0.2500000E+00  0.3712308E-15  0.5859375E-02
   1      -29.686620
   2       -9.817700
   3       -9.556499
   4       -9.551638
   5       -0.186981
   6       -0.141289
   7        0.006037
   8        0.232481
   9        0.233529
  10        1.993886
  11        5.217059
  12        6.308057
  13        7.399621
  14        7.573748
  15        9.772583
 
  0.3750000E+00  0.2500000E+00  0.3677614E-15  0.5859375E-02
   1      -29.683108
   2       -9.867267
   3       -9.593285
   4       -9.571479
   5       -0.169054
   6       -0.079850
   7        0.059144
   8        0.257578
   9        0.261486
  10        2.233981
  11        5.069927
  12        6.135764
  13        7.266847
  14        7.865695
  15        9.871253
 
  0.4375000E+00  0.2500000E+00  0.3747003E-15  0.5859375E-02
   1      -29.679980
   2       -9.904504
   3       -9.637549
   4       -9.587441
   5       -0.123905
   6        0.004376
   7        0.101573
   8        0.268799
   9        0.277387
  10        2.471098
  11        4.918143
  12        6.059986
  13        7.047395
  14        8.150374
  15        9.985445
 
  0.5000000E+00  0.2500000E+00  0.4024558E-15  0.5859375E-02
   1      -29.677711
   2       -9.924692
   3       -9.681810
   4       -9.597184
   5       -0.058342
   6        0.101163
   7        0.114049
   8        0.263078
   9        0.278686
  10        2.731102
  11        4.723290
  12        6.058023
  13        6.797680
  14        8.313981
  15        9.776873
 
 -0.4375000E+00  0.2500000E+00  0.3330669E-15  0.5859375E-02
   1      -29.676651
   2       -9.928205
   3       -9.716083
   4       -9.599308
   5        0.014980
   6        0.096165
   7        0.197445
   8        0.239836
   9        0.265181
  10        3.026241
  11        4.477096
  12        6.022388
  13        6.561019
  14        8.418401
  15        9.368614
 
 -0.3750000E+00  0.2500000E+00  0.3330669E-15  0.5859375E-02
   1      -29.676963
   2       -9.920887
   3       -9.728819
   4       -9.593514
   5        0.036307
   6        0.106996
   7        0.202262
   8        0.238790
   9        0.278469
  10        3.321428
  11        4.189854
  12        5.913794
  13        6.366928
  14        8.664858
  15        8.983796
 
 -0.3125000E+00  0.2500000E+00  0.3330669E-15  0.5859375E-02
   1      -29.678595
   2       -9.910049
   3       -9.711742
   4       -9.580643
   5       -0.007193
   6        0.154693
   7        0.166209
   8        0.204081
   9        0.328904
  10        3.350935
  11        4.104894
  12        5.823726
  13        6.236518
  14        8.660868
  15        9.095176
 
 -0.2500000E+00  0.2500000E+00  0.3608225E-15  0.2929688E-02
   1      -29.681302
   2       -9.895825
   3       -9.668670
   4       -9.562572
   5       -0.044325
   6        0.111905
   7        0.166174
   8        0.201951
   9        0.337977
  10        2.929642
  11        4.434005
  12        5.826814
  13        6.184155
  14        8.425935
  15        9.633253
 
  0.3125000E+00  0.3125000E+00  0.3742002E-15  0.1464844E-02
   1      -29.684029
   2       -9.851298
   3       -9.569525
   4       -9.569524
   5       -0.226206
   6       -0.143757
   7        0.000021
   8        0.264048
   9        0.264051
  10        2.087507
  11        5.262182
  12        6.264002
  13        7.588570
  14        7.588575
  15        9.876652
 
  0.3750000E+00  0.3125000E+00  0.3712308E-15  0.5859375E-02
   1      -29.681216
   2       -9.884616
   3       -9.594789
   4       -9.586785
   5       -0.233680
   6       -0.114442
   7        0.017171
   8        0.286831
   9        0.287868
  10        2.160571
  11        5.360622
  12        6.142625
  13        7.629361
  14        7.794174
  15        9.906806
 
  0.4375000E+00  0.3125000E+00  0.3677614E-15  0.5859375E-02
   1      -29.678619
   2       -9.906071
   3       -9.635411
   4       -9.600824
   5       -0.207986
   6       -0.057067
   7        0.039749
   8        0.296880
   9        0.301242
  10        2.256001
  11        5.409615
  12        6.053648
  13        7.514643
  14        8.050903
  15        9.968166
 
  0.5000000E+00  0.3125000E+00  0.3747003E-15  0.5859375E-02
   1      -29.676625
   2       -9.909196
   3       -9.688351
   4       -9.609564
   5       -0.153217
   6        0.021777
   7        0.050658
   8        0.291641
   9        0.301998
  10        2.413565
  11        5.315052
  12        6.066731
  13        7.292629
  14        8.152417
  15        9.784946
 
 -0.4375000E+00  0.3125000E+00  0.3330669E-15  0.5859375E-02
   1      -29.675544
   2       -9.892708
   3       -9.745915
   4       -9.611734
   5       -0.078624
   6        0.044801
   7        0.112736
   8        0.270844
   9        0.289996
  10        2.648438
  11        5.107026
  12        6.055434
  13        7.016765
  14        8.119605
  15        9.439860
 
 -0.3750000E+00  0.3125000E+00  0.3330669E-15  0.5859375E-02
   1      -29.675538
   2       -9.867162
   3       -9.790728
   4       -9.607026
   5       -0.008068
   6        0.041093
   7        0.203686
   8        0.237269
   9        0.267102
  10        2.948023
  11        4.788281
  12        5.938149
  13        6.726505
  14        8.238203
  15        9.103516
 
 -0.3125000E+00  0.3125000E+00  0.3330669E-15  0.2929688E-02
   1      -29.676610
   2       -9.879946
   3       -9.772061
   4       -9.596130
   5       -0.004099
   6        0.101277
   7        0.196634
   8        0.236898
   9        0.280494
  10        3.263357
  11        4.359492
  12        5.833277
  13        6.455319
  14        8.591051
  15        8.836972
 
  0.3750000E+00  0.3750000E+00  0.3742002E-15  0.1464844E-02
   1      -29.679148
   2       -9.908151
   3       -9.601366
   4       -9.601364
   5       -0.269157
   6       -0.118997
   7       -0.000871
   8        0.308720
   9        0.308724
  10        2.093550
  11        5.664654
  12        6.108713
  13        7.873587
  14        7.873588
  15        9.917910
 
  0.4375000E+00  0.3750000E+00  0.3712308E-15  0.5859375E-02
   1      -29.677211
   2       -9.923385
   3       -9.624022
   4       -9.613019
   5       -0.269276
   6       -0.093732
   7       -0.002320
   8        0.319530
   9        0.320742
  10        2.082434
  11        5.881983
  12        6.042783
  13        7.923646
  14        8.053376
  15        9.941336
 
  0.5000000E+00  0.3750000E+00  0.3747003E-15  0.5859375E-02
   1      -29.675704
   2       -9.921892
   3       -9.665767
   4       -9.620017
   5       -0.233960
   6       -0.041740
   7        0.002413
   8        0.316834
   9        0.321969
  10        2.159810
  11        5.816074
  12        6.127169
  13        7.777672
  14        8.105001
  15        9.831162
 
 -0.4375000E+00  0.3750000E+00  0.3885781E-15  0.5859375E-02
   1      -29.674855
   2       -9.900631
   3       -9.722943
   4       -9.621335
   5       -0.169153
   6        0.007295
   7        0.031259
   8        0.300291
   9        0.312173
  10        2.337372
  11        5.624476
  12        6.155659
  13        7.489776
  14        7.977080
  15        9.563845
 
 -0.3750000E+00  0.3750000E+00  0.3330669E-15  0.2929688E-02
   1      -29.674799
   2       -9.863055
   3       -9.785525
   4       -9.616780
   5       -0.086252
   6        0.014857
   7        0.116810
   8        0.272180
   9        0.292867
  10        2.607274
  11        5.305333
  12        6.040194
  13        7.119677
  14        7.981787
  15        9.299843
 
  0.4375000E+00  0.4375000E+00  0.3742002E-15  0.1464844E-02
   1      -29.675969
   2       -9.938319
   3       -9.622191
   4       -9.622190
   5       -0.297753
   6       -0.102318
   7       -0.023737
   8        0.332788
   9        0.332792
  10        1.989628
  11        6.016849
  12        6.213318
  13        8.164686
  14        8.164697
  15        9.954934
 
  0.5000000E+00  0.4375000E+00  0.3712308E-15  0.5859375E-02
   1      -29.675088
   2       -9.939964
   3       -9.639900
   4       -9.626982
   5       -0.288482
   6       -0.082465
   7       -0.027386
   8        0.334045
   9        0.335415
  10        1.998248
  11        5.968984
  12        6.356455
  13        8.152933
  14        8.203670
  15        9.911283
 
 -0.4375000E+00  0.4375000E+00  0.3885781E-15  0.2929688E-02
   1      -29.674697
   2       -9.925343
   3       -9.677071
   4       -9.626681
   5       -0.243066
   6       -0.036343
   7       -0.016559
   8        0.322646
   9        0.328170
  10        2.115649
  11        5.871480
  12        6.322708
  13        7.900863
  14        8.052625
  15        9.740277
 
  0.5000000E+00  0.5000000E+00  0.3742002E-15  0.7324219E-03
   1      -29.674871
   2       -9.947468
   3       -9.629422
   4       -9.629421
   5       -0.307762
   6       -0.096450
   7       -0.037431
   8        0.340154
   9        0.340158
  10        1.942901
  11        5.986476
  12        6.463605
  13        8.297492
  14        8.297503
  15        9.970375
 
  0.1875000E+00  0.1250000E+00  0.6250000E-01  0.5859375E-02
   1      -29.700390
   2       -9.574940
   3       -9.465442
   4       -9.458613
   5       -0.200983
   6       -0.099431
   7       -0.058284
   8        0.030999
   9        0.054938
  10        0.639863
  11        6.858710
  12        6.874861
  13        7.449082
  14        7.677674
  15        8.852011
 
  0.2500000E+00  0.1250000E+00  0.6250000E-01  0.1171875E-01
   1      -29.696450
   2       -9.665831
   3       -9.492930
   4       -9.479834
   5       -0.156170
   6       -0.045465
   7       -0.001822
   8        0.065762
   9        0.105786
  10        1.026788
  11        6.246600
  12        6.604429
  13        7.113399
  14        7.835242
  15        8.940040
 
  0.3125000E+00  0.1250000E+00  0.6250000E-01  0.1171875E-01
   1      -29.691796
   2       -9.769773
   3       -9.523634
   4       -9.505490
   5       -0.080172
   6       -0.014219
   7        0.106137
   8        0.110833
   9        0.153873
  10        1.502278
  11        5.647162
  12        6.347760
  13        6.745081
  14        8.058809
  15        9.004637
 
  0.3750000E+00  0.1250000E+00  0.6250000E-01  0.1171875E-01
   1      -29.687137
   2       -9.870225
   3       -9.553268
   4       -9.531356
   5        0.012615
   6        0.035852
   7        0.151397
   8        0.191894
   9        0.211549
  10        2.027562
  11        5.096306
  12        6.127882
  13        6.409845
  14        8.319214
  15        8.989198
 
  0.4375000E+00  0.1250000E+00  0.6250000E-01  0.1171875E-01
   1      -29.683180
   2       -9.952817
   3       -9.577772
   4       -9.553300
   5        0.079743
   6        0.125111
   7        0.188342
   8        0.214604
   9        0.285393
  10        2.555966
  11        4.604162
  12        5.972065
  13        6.142403
  14        8.581183
  15        9.104640
 
  0.5000000E+00  0.1250000E+00  0.6250000E-01  0.1171875E-01
   1      -29.680535
   2      -10.006775
   3       -9.593881
   4       -9.567944
   5        0.132796
   6        0.198492
   7        0.214313
   8        0.230433
   9        0.317279
  10        3.029899
  11        4.180389
  12        5.890599