       N       E                     dE             d eps       ncg     rms          rms(c)
DAV:   1     0.204567317441E+03    0.20457E+03   -0.96122E+03  4350   0.138E+03
DAV:   2     0.130703262007E+02   -0.19150E+03   -0.18847E+03  4988   0.344E+02
DAV:   3    -0.655799153496E+01   -0.19628E+02   -0.19458E+02  6317   0.115E+02
DAV:   4    -0.750724218446E+01   -0.94925E+00   -0.94746E+00  8111   0.246E+01
DAV:   5    -0.751711323634E+01   -0.98711E-02   -0.98909E-02  6142   0.198E+00    0.521E+00
RMM:   6    -0.703220646934E+01    0.48491E+00   -0.40858E+00  4504   0.158E+01    0.119E+00
RMM:   7    -0.698183079558E+01    0.50376E-01   -0.13254E-01  5196   0.336E+00    0.706E-01
RMM:   8    -0.697622338507E+01    0.56074E-02   -0.74901E-02  5106   0.224E+00    0.353E-01
RMM:   9    -0.697130068991E+01    0.49227E-02   -0.23619E-02  5365   0.153E+00    0.628E-02
RMM:  10    -0.697156540907E+01   -0.26472E-03   -0.32301E-03  6069   0.303E-01    0.546E-02
RMM:  11    -0.697148118176E+01    0.84227E-04   -0.80038E-04  4882   0.205E-01
   1 F= -.69714812E+01 E0= -.69714812E+01  d E =0.000000E+00
