unknown system                          
           1
     0.000000    3.141538    3.141538
     3.141538    0.000000    3.141538
     3.141538    3.141538    0.000000
   Ac   Ag
   1   1
Direct configuration=     1
   0.00000000  0.00000000  0.00000000
   0.50000038  0.50000038  0.50000038
