<?xml version="1.0" encoding="ISO-8859-1"?>
<modeling>
 <generator>
  <i name="program" type="string">vasp</i>
  <i name="version" type="string">4.6.35 </i>
  <i name="subversion" type="string">3Apr08 complex  parallel</i>
  <i name="platform" type="string">LinuxIFC</i>
  <i name="date" type="string">2013 04 21</i>
  <i name="time" type="string">17:03:15</i>
 </generator>
 <incar>
  <i type="string" name="SYSTEM">Mg_pv.A2</i>
  <i type="string" name="PREC">accurate</i>
  <i type="string" name="ALGO">Normal</i>
  <i type="int" name="ISPIN">     1</i>
  <i name="EDIFF">      0.00000100</i>
  <i type="int" name="IBRION">     2</i>
  <i type="int" name="NSW">    51</i>
  <i type="int" name="ISIF">     3</i>
  <i type="int" name="ISYM">     2</i>
  <i name="ENMAX">    512.24180000</i>
  <i type="int" name="NBANDS">    37</i>
  <i type="logical" name="LREAL"> F  </i>
  <i type="logical" name="LPLANE"> T  </i>
  <i type="int" name="ISMEAR">     1</i>
  <i name="SIGMA">      0.10000000</i>
  <i type="int" name="NSIM">     4</i>
  <i type="logical" name="LWAVE"> F  </i>
  <i type="logical" name="LCHARG"> T  </i>
  <i type="logical" name="LSCALU"> F  </i>
 </incar>
 <kpoints>
  <generation param="Monkhorst-Pack">
   <v type="int" name="divisions">      32      32      32</v>
   <v name="usershift">      0.00000000       0.00000000       0.00000000 </v>
   <v name="genvec1">      0.03125000      -0.00000000       0.00000000 </v>
   <v name="genvec2">     -0.00000000       0.03125000       0.00000000 </v>
   <v name="genvec3">      0.00000000       0.00000000       0.03125000 </v>
   <v name="shift">      0.50000000       0.50000000       0.50000000 </v>
  </generation>
  <varray name="kpointlist" >
   <v>       0.01562500       0.01562500       0.01562500 </v>
   <v>       0.04687500       0.01562500       0.01562500 </v>
   <v>       0.07812500       0.01562500       0.01562500 </v>
   <v>       0.10937500       0.01562500       0.01562500 </v>
   <v>       0.14062500       0.01562500       0.01562500 </v>
   <v>       0.17187500       0.01562500       0.01562500 </v>
   <v>       0.20312500       0.01562500       0.01562500 </v>
   <v>       0.23437500       0.01562500       0.01562500 </v>
   <v>       0.26562500       0.01562500       0.01562500 </v>
   <v>       0.29687500       0.01562500       0.01562500 </v>
   <v>       0.32812500       0.01562500       0.01562500 </v>
   <v>       0.35937500       0.01562500       0.01562500 </v>
   <v>       0.39062500       0.01562500       0.01562500 </v>
   <v>       0.42187500       0.01562500       0.01562500 </v>
   <v>       0.45312500       0.01562500       0.01562500 </v>
   <v>       0.48437500       0.01562500       0.01562500 </v>
   <v>      -0.01562500       0.01562500       0.01562500 </v>
   <v>       0.04687500       0.04687500       0.01562500 </v>
   <v>       0.07812500       0.04687500       0.01562500 </v>
   <v>       0.10937500       0.04687500       0.01562500 </v>
   <v>       0.14062500       0.04687500       0.01562500 </v>
   <v>       0.17187500       0.04687500       0.01562500 </v>
   <v>       0.20312500       0.04687500       0.01562500 </v>
   <v>       0.23437500       0.04687500       0.01562500 </v>
   <v>       0.26562500       0.04687500       0.01562500 </v>
   <v>       0.29687500       0.04687500       0.01562500 </v>
   <v>       0.32812500       0.04687500       0.01562500 </v>
   <v>       0.35937500       0.04687500       0.01562500 </v>
   <v>       0.39062500       0.04687500       0.01562500 </v>
   <v>       0.42187500       0.04687500       0.01562500 </v>
   <v>       0.45312500       0.04687500       0.01562500 </v>
   <v>      -0.04687500       0.04687500       0.01562500 </v>
   <v>       0.07812500       0.07812500       0.01562500 </v>
   <v>       0.10937500       0.07812500       0.01562500 </v>
   <v>       0.14062500       0.07812500       0.01562500 </v>
   <v>       0.17187500       0.07812500       0.01562500 </v>
   <v>       0.20312500       0.07812500       0.01562500 </v>
   <v>       0.23437500       0.07812500       0.01562500 </v>
   <v>       0.26562500       0.07812500       0.01562500 </v>
   <v>       0.29687500       0.07812500       0.01562500 </v>
   <v>       0.32812500       0.07812500       0.01562500 </v>
   <v>       0.35937500       0.07812500       0.01562500 </v>
   <v>       0.39062500       0.07812500       0.01562500 </v>
   <v>       0.42187500       0.07812500       0.01562500 </v>
   <v>       0.45312500       0.07812500       0.01562500 </v>
   <v>      -0.07812500       0.07812500       0.01562500 </v>
   <v>      -0.04687500       0.07812500       0.01562500 </v>
   <v>       0.10937500       0.10937500       0.01562500 </v>
   <v>       0.14062500       0.10937500       0.01562500 </v>
   <v>       0.17187500       0.10937500       0.01562500 </v>
   <v>       0.20312500       0.10937500       0.01562500 </v>
   <v>       0.23437500       0.10937500       0.01562500 </v>
   <v>       0.26562500       0.10937500       0.01562500 </v>
   <v>       0.29687500       0.10937500       0.01562500 </v>
   <v>       0.32812500       0.10937500       0.01562500 </v>
   <v>       0.35937500       0.10937500       0.01562500 </v>
   <v>       0.39062500       0.10937500       0.01562500 </v>
   <v>       0.42187500       0.10937500       0.01562500 </v>
   <v>      -0.10937500       0.10937500       0.01562500 </v>
   <v>      -0.07812500       0.10937500       0.01562500 </v>
   <v>       0.14062500       0.14062500       0.01562500 </v>
   <v>       0.17187500       0.14062500       0.01562500 </v>
   <v>       0.20312500       0.14062500       0.01562500 </v>
   <v>       0.23437500       0.14062500       0.01562500 </v>
   <v>       0.26562500       0.14062500       0.01562500 </v>
   <v>       0.29687500       0.14062500       0.01562500 </v>
   <v>       0.32812500       0.14062500       0.01562500 </v>
   <v>       0.35937500       0.14062500       0.01562500 </v>
   <v>       0.39062500       0.14062500       0.01562500 </v>
   <v>       0.42187500       0.14062500       0.01562500 </v>
   <v>      -0.14062500       0.14062500       0.01562500 </v>
   <v>      -0.10937500       0.14062500       0.01562500 </v>
   <v>      -0.07812500       0.14062500       0.01562500 </v>
   <v>       0.17187500       0.17187500       0.01562500 </v>
   <v>       0.20312500       0.17187500       0.01562500 </v>
   <v>       0.23437500       0.17187500       0.01562500 </v>
   <v>       0.26562500       0.17187500       0.01562500 </v>
   <v>       0.29687500       0.17187500       0.01562500 </v>
   <v>       0.32812500       0.17187500       0.01562500 </v>
   <v>       0.35937500       0.17187500       0.01562500 </v>
   <v>       0.39062500       0.17187500       0.01562500 </v>
   <v>      -0.17187500       0.17187500       0.01562500 </v>
   <v>      -0.14062500       0.17187500       0.01562500 </v>
   <v>      -0.10937500       0.17187500       0.01562500 </v>
   <v>       0.20312500       0.20312500       0.01562500 </v>
   <v>       0.23437500       0.20312500       0.01562500 </v>
   <v>       0.26562500       0.20312500       0.01562500 </v>
   <v>       0.29687500       0.20312500       0.01562500 </v>
   <v>       0.32812500       0.20312500       0.01562500 </v>
   <v>       0.35937500       0.20312500       0.01562500 </v>
   <v>       0.39062500       0.20312500       0.01562500 </v>
   <v>      -0.20312500       0.20312500       0.01562500 </v>
   <v>      -0.17187500       0.20312500       0.01562500 </v>
   <v>      -0.14062500       0.20312500       0.01562500 </v>
   <v>      -0.10937500       0.20312500       0.01562500 </v>
   <v>       0.23437500       0.23437500       0.01562500 </v>
   <v>       0.26562500       0.23437500       0.01562500 </v>
   <v>       0.29687500       0.23437500       0.01562500 </v>
   <v>       0.32812500       0.23437500       0.01562500 </v>
   <v>       0.35937500       0.23437500       0.01562500 </v>
   <v>      -0.23437500       0.23437500       0.01562500 </v>
   <v>      -0.20312500       0.23437500       0.01562500 </v>
   <v>      -0.17187500       0.23437500       0.01562500 </v>
   <v>      -0.14062500       0.23437500       0.01562500 </v>
   <v>       0.26562500       0.26562500       0.01562500 </v>
   <v>       0.29687500       0.26562500       0.01562500 </v>
   <v>       0.32812500       0.26562500       0.01562500 </v>
   <v>       0.35937500       0.26562500       0.01562500 </v>
   <v>      -0.26562500       0.26562500       0.01562500 </v>
   <v>      -0.23437500       0.26562500       0.01562500 </v>
   <v>      -0.20312500       0.26562500       0.01562500 </v>
   <v>      -0.17187500       0.26562500       0.01562500 </v>
   <v>      -0.14062500       0.26562500       0.01562500 </v>
   <v>       0.29687500       0.29687500       0.01562500 </v>
   <v>       0.32812500       0.29687500       0.01562500 </v>
   <v>      -0.29687500       0.29687500       0.01562500 </v>
   <v>      -0.26562500       0.29687500       0.01562500 </v>
   <v>      -0.23437500       0.29687500       0.01562500 </v>
   <v>      -0.20312500       0.29687500       0.01562500 </v>
   <v>      -0.17187500       0.29687500       0.01562500 </v>
   <v>       0.32812500       0.32812500       0.01562500 </v>
   <v>      -0.32812500       0.32812500       0.01562500 </v>
   <v>      -0.29687500       0.32812500       0.01562500 </v>
   <v>      -0.26562500       0.32812500       0.01562500 </v>
   <v>      -0.23437500       0.32812500       0.01562500 </v>
   <v>      -0.20312500       0.32812500       0.01562500 </v>
   <v>      -0.17187500       0.32812500       0.01562500 </v>
   <v>      -0.35937500       0.35937500       0.01562500 </v>
   <v>      -0.32812500       0.35937500       0.01562500 </v>
   <v>      -0.29687500       0.35937500       0.01562500 </v>
   <v>      -0.26562500       0.35937500       0.01562500 </v>
   <v>      -0.23437500       0.35937500       0.01562500 </v>
   <v>      -0.20312500       0.35937500       0.01562500 </v>
   <v>      -0.39062500       0.39062500       0.01562500 </v>
   <v>      -0.35937500       0.39062500       0.01562500 </v>
   <v>      -0.32812500       0.39062500       0.01562500 </v>
   <v>      -0.29687500       0.39062500       0.01562500 </v>
   <v>      -0.26562500       0.39062500       0.01562500 </v>
   <v>      -0.23437500       0.39062500       0.01562500 </v>
   <v>      -0.20312500       0.39062500       0.01562500 </v>
   <v>      -0.42187500       0.42187500       0.01562500 </v>
   <v>      -0.39062500       0.42187500       0.01562500 </v>
   <v>      -0.35937500       0.42187500       0.01562500 </v>
   <v>      -0.32812500       0.42187500       0.01562500 </v>
   <v>      -0.29687500       0.42187500       0.01562500 </v>
   <v>      -0.26562500       0.42187500       0.01562500 </v>
   <v>      -0.23437500       0.42187500       0.01562500 </v>
   <v>      -0.45312500       0.45312500       0.01562500 </v>
   <v>      -0.42187500       0.45312500       0.01562500 </v>
   <v>      -0.39062500       0.45312500       0.01562500 </v>
   <v>      -0.35937500       0.45312500       0.01562500 </v>
   <v>      -0.32812500       0.45312500       0.01562500 </v>
   <v>      -0.29687500       0.45312500       0.01562500 </v>
   <v>      -0.26562500       0.45312500       0.01562500 </v>
   <v>      -0.23437500       0.45312500       0.01562500 </v>
   <v>      -0.48437500       0.48437500       0.01562500 </v>
   <v>      -0.45312500       0.48437500       0.01562500 </v>
   <v>      -0.42187500       0.48437500       0.01562500 </v>
   <v>      -0.39062500       0.48437500       0.01562500 </v>
   <v>      -0.35937500       0.48437500       0.01562500 </v>
   <v>      -0.32812500       0.48437500       0.01562500 </v>
   <v>      -0.29687500       0.48437500       0.01562500 </v>
   <v>      -0.26562500       0.48437500       0.01562500 </v>
   <v>      -0.48437500      -0.48437500       0.01562500 </v>
   <v>      -0.45312500      -0.48437500       0.01562500 </v>
   <v>      -0.42187500      -0.48437500       0.01562500 </v>
   <v>      -0.39062500      -0.48437500       0.01562500 </v>
   <v>      -0.35937500      -0.48437500       0.01562500 </v>
   <v>      -0.32812500      -0.48437500       0.01562500 </v>
   <v>      -0.29687500      -0.48437500       0.01562500 </v>
   <v>      -0.26562500      -0.48437500       0.01562500 </v>
   <v>      -0.45312500      -0.45312500       0.01562500 </v>
   <v>      -0.42187500      -0.45312500       0.01562500 </v>
   <v>      -0.39062500      -0.45312500       0.01562500 </v>
   <v>      -0.35937500      -0.45312500       0.01562500 </v>
   <v>      -0.32812500      -0.45312500       0.01562500 </v>
   <v>      -0.29687500      -0.45312500       0.01562500 </v>
   <v>      -0.42187500      -0.42187500       0.01562500 </v>
   <v>      -0.39062500      -0.42187500       0.01562500 </v>
   <v>      -0.35937500      -0.42187500       0.01562500 </v>
   <v>      -0.32812500      -0.42187500       0.01562500 </v>
   <v>      -0.29687500      -0.42187500       0.01562500 </v>
   <v>      -0.39062500      -0.39062500       0.01562500 </v>
   <v>      -0.35937500      -0.39062500       0.01562500 </v>
   <v>      -0.32812500      -0.39062500       0.01562500 </v>
   <v>      -0.35937500      -0.35937500       0.01562500 </v>
   <v>      -0.32812500      -0.35937500       0.01562500 </v>
   <v>       0.04687500       0.04687500       0.04687500 </v>
   <v>       0.07812500       0.04687500       0.04687500 </v>
   <v>       0.10937500       0.04687500       0.04687500 </v>
   <v>       0.14062500       0.04687500       0.04687500 </v>
   <v>       0.17187500       0.04687500       0.04687500 </v>
   <v>       0.20312500       0.04687500       0.04687500 </v>
   <v>       0.23437500       0.04687500       0.04687500 </v>
   <v>       0.26562500       0.04687500       0.04687500 </v>
   <v>       0.29687500       0.04687500       0.04687500 </v>
   <v>       0.32812500       0.04687500       0.04687500 </v>
   <v>       0.35937500       0.04687500       0.04687500 </v>
   <v>       0.39062500       0.04687500       0.04687500 </v>
   <v>       0.42187500       0.04687500       0.04687500 </v>
   <v>       0.45312500       0.04687500       0.04687500 </v>
   <v>      -0.04687500       0.04687500       0.04687500 </v>
   <v>       0.07812500       0.07812500       0.04687500 </v>
   <v>       0.10937500       0.07812500       0.04687500 </v>
   <v>       0.14062500       0.07812500       0.04687500 </v>
   <v>       0.17187500       0.07812500       0.04687500 </v>
   <v>       0.20312500       0.07812500       0.04687500 </v>
   <v>       0.23437500       0.07812500       0.04687500 </v>
   <v>       0.26562500       0.07812500       0.04687500 </v>
   <v>       0.29687500       0.07812500       0.04687500 </v>
   <v>       0.32812500       0.07812500       0.04687500 </v>
   <v>       0.35937500       0.07812500       0.04687500 </v>
   <v>       0.39062500       0.07812500       0.04687500 </v>
   <v>       0.42187500       0.07812500       0.04687500 </v>
   <v>      -0.07812500       0.07812500       0.04687500 </v>
   <v>       0.10937500       0.10937500       0.04687500 </v>
   <v>       0.14062500       0.10937500       0.04687500 </v>
   <v>       0.17187500       0.10937500       0.04687500 </v>
   <v>       0.20312500       0.10937500       0.04687500 </v>
   <v>       0.23437500       0.10937500       0.04687500 </v>
   <v>       0.26562500       0.10937500       0.04687500 </v>
   <v>       0.29687500       0.10937500       0.04687500 </v>
   <v>       0.32812500       0.10937500       0.04687500 </v>
   <v>       0.35937500       0.10937500       0.04687500 </v>
   <v>       0.39062500       0.10937500       0.04687500 </v>
   <v>       0.42187500       0.10937500       0.04687500 </v>
   <v>      -0.10937500       0.10937500       0.04687500 </v>
   <v>      -0.07812500       0.10937500       0.04687500 </v>
   <v>       0.14062500       0.14062500       0.04687500 </v>
   <v>       0.17187500       0.14062500       0.04687500 </v>
   <v>       0.20312500       0.14062500       0.04687500 </v>
   <v>       0.23437500       0.14062500       0.04687500 </v>
   <v>       0.26562500       0.14062500       0.04687500 </v>
   <v>       0.29687500       0.14062500       0.04687500 </v>
   <v>       0.32812500       0.14062500       0.04687500 </v>
   <v>       0.35937500       0.14062500       0.04687500 </v>
   <v>       0.39062500       0.14062500       0.04687500 </v>
   <v>      -0.14062500       0.14062500       0.04687500 </v>
   <v>      -0.10937500       0.14062500       0.04687500 </v>
   <v>       0.17187500       0.17187500       0.04687500 </v>
   <v>       0.20312500       0.17187500       0.04687500 </v>
   <v>       0.23437500       0.17187500       0.04687500 </v>
   <v>       0.26562500       0.17187500       0.04687500 </v>
   <v>       0.29687500       0.17187500       0.04687500 </v>
   <v>       0.32812500       0.17187500       0.04687500 </v>
   <v>       0.35937500       0.17187500       0.04687500 </v>
   <v>       0.39062500       0.17187500       0.04687500 </v>
   <v>      -0.17187500       0.17187500       0.04687500 </v>
   <v>      -0.14062500       0.17187500       0.04687500 </v>
   <v>      -0.10937500       0.17187500       0.04687500 </v>
   <v>       0.20312500       0.20312500       0.04687500 </v>
   <v>       0.23437500       0.20312500       0.04687500 </v>
   <v>       0.26562500       0.20312500       0.04687500 </v>
   <v>       0.29687500       0.20312500       0.04687500 </v>
   <v>       0.32812500       0.20312500       0.04687500 </v>
   <v>       0.35937500       0.20312500       0.04687500 </v>
   <v>      -0.20312500       0.20312500       0.04687500 </v>
   <v>      -0.17187500       0.20312500       0.04687500 </v>
   <v>      -0.14062500       0.20312500       0.04687500 </v>
   <v>       0.23437500       0.23437500       0.04687500 </v>
   <v>       0.26562500       0.23437500       0.04687500 </v>
   <v>       0.29687500       0.23437500       0.04687500 </v>
   <v>       0.32812500       0.23437500       0.04687500 </v>
   <v>       0.35937500       0.23437500       0.04687500 </v>
   <v>      -0.23437500       0.23437500       0.04687500 </v>
   <v>      -0.20312500       0.23437500       0.04687500 </v>
   <v>      -0.17187500       0.23437500       0.04687500 </v>
   <v>      -0.14062500       0.23437500       0.04687500 </v>
   <v>       0.26562500       0.26562500       0.04687500 </v>
   <v>       0.29687500       0.26562500       0.04687500 </v>
   <v>       0.32812500       0.26562500       0.04687500 </v>
   <v>      -0.26562500       0.26562500       0.04687500 </v>
   <v>      -0.23437500       0.26562500       0.04687500 </v>
   <v>      -0.20312500       0.26562500       0.04687500 </v>
   <v>      -0.17187500       0.26562500       0.04687500 </v>
   <v>       0.29687500       0.29687500       0.04687500 </v>
   <v>       0.32812500       0.29687500       0.04687500 </v>
   <v>      -0.29687500       0.29687500       0.04687500 </v>
   <v>      -0.26562500       0.29687500       0.04687500 </v>
   <v>      -0.23437500       0.29687500       0.04687500 </v>
   <v>      -0.20312500       0.29687500       0.04687500 </v>
   <v>      -0.17187500       0.29687500       0.04687500 </v>
   <v>      -0.32812500       0.32812500       0.04687500 </v>
   <v>      -0.29687500       0.32812500       0.04687500 </v>
   <v>      -0.26562500       0.32812500       0.04687500 </v>
   <v>      -0.23437500       0.32812500       0.04687500 </v>
   <v>      -0.20312500       0.32812500       0.04687500 </v>
   <v>      -0.35937500       0.35937500       0.04687500 </v>
   <v>      -0.32812500       0.35937500       0.04687500 </v>
   <v>      -0.29687500       0.35937500       0.04687500 </v>
   <v>      -0.26562500       0.35937500       0.04687500 </v>
   <v>      -0.23437500       0.35937500       0.04687500 </v>
   <v>      -0.20312500       0.35937500       0.04687500 </v>
   <v>      -0.39062500       0.39062500       0.04687500 </v>
   <v>      -0.35937500       0.39062500       0.04687500 </v>
   <v>      -0.32812500       0.39062500       0.04687500 </v>
   <v>      -0.29687500       0.39062500       0.04687500 </v>
   <v>      -0.26562500       0.39062500       0.04687500 </v>
   <v>      -0.23437500       0.39062500       0.04687500 </v>
   <v>      -0.42187500       0.42187500       0.04687500 </v>
   <v>      -0.39062500       0.42187500       0.04687500 </v>
   <v>      -0.35937500       0.42187500       0.04687500 </v>
   <v>      -0.32812500       0.42187500       0.04687500 </v>
   <v>      -0.29687500       0.42187500       0.04687500 </v>
   <v>      -0.26562500       0.42187500       0.04687500 </v>
   <v>      -0.23437500       0.42187500       0.04687500 </v>
   <v>      -0.45312500       0.45312500       0.04687500 </v>
   <v>      -0.42187500       0.45312500       0.04687500 </v>
   <v>      -0.39062500       0.45312500       0.04687500 </v>
   <v>      -0.35937500       0.45312500       0.04687500 </v>
   <v>      -0.32812500       0.45312500       0.04687500 </v>
   <v>      -0.29687500       0.45312500       0.04687500 </v>
   <v>      -0.26562500       0.45312500       0.04687500 </v>
   <v>      -0.48437500       0.48437500       0.04687500 </v>
   <v>      -0.45312500       0.48437500       0.04687500 </v>
   <v>      -0.42187500       0.48437500       0.04687500 </v>
   <v>      -0.39062500       0.48437500       0.04687500 </v>
   <v>      -0.35937500       0.48437500       0.04687500 </v>
   <v>      -0.32812500       0.48437500       0.04687500 </v>
   <v>      -0.29687500       0.48437500       0.04687500 </v>
   <v>      -0.26562500       0.48437500       0.04687500 </v>
   <v>      -0.48437500      -0.48437500       0.04687500 </v>
   <v>      -0.45312500      -0.48437500       0.04687500 </v>
   <v>      -0.42187500      -0.48437500       0.04687500 </v>
   <v>      -0.39062500      -0.48437500       0.04687500 </v>
   <v>      -0.35937500      -0.48437500       0.04687500 </v>
   <v>      -0.32812500      -0.48437500       0.04687500 </v>
   <v>      -0.29687500      -0.48437500       0.04687500 </v>
   <v>      -0.45312500      -0.45312500       0.04687500 </v>
   <v>      -0.42187500      -0.45312500       0.04687500 </v>
   <v>      -0.39062500      -0.45312500       0.04687500 </v>
   <v>      -0.35937500      -0.45312500       0.04687500 </v>
   <v>      -0.32812500      -0.45312500       0.04687500 </v>
   <v>      -0.29687500      -0.45312500       0.04687500 </v>
   <v>      -0.42187500      -0.42187500       0.04687500 </v>
   <v>      -0.39062500      -0.42187500       0.04687500 </v>
   <v>      -0.35937500      -0.42187500       0.04687500 </v>
   <v>      -0.32812500      -0.42187500       0.04687500 </v>
   <v>      -0.39062500      -0.39062500       0.04687500 </v>
   <v>      -0.35937500      -0.39062500       0.04687500 </v>
   <v>      -0.32812500      -0.39062500       0.04687500 </v>
   <v>      -0.35937500      -0.35937500       0.04687500 </v>
   <v>       0.07812500       0.07812500       0.07812500 </v>
   <v>       0.10937500       0.07812500       0.07812500 </v>
   <v>       0.14062500       0.07812500       0.07812500 </v>
   <v>       0.17187500       0.07812500       0.07812500 </v>
   <v>       0.20312500       0.07812500       0.07812500 </v>
   <v>       0.23437500       0.07812500       0.07812500 </v>
   <v>       0.26562500       0.07812500       0.07812500 </v>
   <v>       0.29687500       0.07812500       0.07812500 </v>
   <v>       0.32812500       0.07812500       0.07812500 </v>
   <v>       0.35937500       0.07812500       0.07812500 </v>
   <v>       0.39062500       0.07812500       0.07812500 </v>
   <v>       0.42187500       0.07812500       0.07812500 </v>
   <v>      -0.07812500       0.07812500       0.07812500 </v>
   <v>       0.10937500       0.10937500       0.07812500 </v>
   <v>       0.14062500       0.10937500       0.07812500 </v>
   <v>       0.17187500       0.10937500       0.07812500 </v>
   <v>       0.20312500       0.10937500       0.07812500 </v>
   <v>       0.23437500       0.10937500       0.07812500 </v>
   <v>       0.26562500       0.10937500       0.07812500 </v>
   <v>       0.29687500       0.10937500       0.07812500 </v>
   <v>       0.32812500       0.10937500       0.07812500 </v>
   <v>       0.35937500       0.10937500       0.07812500 </v>
   <v>       0.39062500       0.10937500       0.07812500 </v>
   <v>      -0.10937500       0.10937500       0.07812500 </v>
   <v>       0.14062500       0.14062500       0.07812500 </v>
   <v>       0.17187500       0.14062500       0.07812500 </v>
   <v>       0.20312500       0.14062500       0.07812500 </v>
   <v>       0.23437500       0.14062500       0.07812500 </v>
   <v>       0.26562500       0.14062500       0.07812500 </v>
   <v>       0.29687500       0.14062500       0.07812500 </v>
   <v>       0.32812500       0.14062500       0.07812500 </v>
   <v>       0.35937500       0.14062500       0.07812500 </v>
   <v>       0.39062500       0.14062500       0.07812500 </v>
   <v>      -0.14062500       0.14062500       0.07812500 </v>
   <v>      -0.10937500       0.14062500       0.07812500 </v>
   <v>       0.17187500       0.17187500       0.07812500 </v>
   <v>       0.20312500       0.17187500       0.07812500 </v>
   <v>       0.23437500       0.17187500       0.07812500 </v>
   <v>       0.26562500       0.17187500       0.07812500 </v>
   <v>       0.29687500       0.17187500       0.07812500 </v>
   <v>       0.32812500       0.17187500       0.07812500 </v>
   <v>       0.35937500       0.17187500       0.07812500 </v>
   <v>      -0.17187500       0.17187500       0.07812500 </v>
   <v>      -0.14062500       0.17187500       0.07812500 </v>
   <v>       0.20312500       0.20312500       0.07812500 </v>
   <v>       0.23437500       0.20312500       0.07812500 </v>
   <v>       0.26562500       0.20312500       0.07812500 </v>
   <v>       0.29687500       0.20312500       0.07812500 </v>
   <v>       0.32812500       0.20312500       0.07812500 </v>
   <v>       0.35937500       0.20312500       0.07812500 </v>
   <v>      -0.20312500       0.20312500       0.07812500 </v>
   <v>      -0.17187500       0.20312500       0.07812500 </v>
   <v>      -0.14062500       0.20312500       0.07812500 </v>
   <v>       0.23437500       0.23437500       0.07812500 </v>
   <v>       0.26562500       0.23437500       0.07812500 </v>
   <v>       0.29687500       0.23437500       0.07812500 </v>
   <v>       0.32812500       0.23437500       0.07812500 </v>
   <v>      -0.23437500       0.23437500       0.07812500 </v>
   <v>      -0.20312500       0.23437500       0.07812500 </v>
   <v>      -0.17187500       0.23437500       0.07812500 </v>
   <v>       0.26562500       0.26562500       0.07812500 </v>
   <v>       0.29687500       0.26562500       0.07812500 </v>
   <v>       0.32812500       0.26562500       0.07812500 </v>
   <v>      -0.26562500       0.26562500       0.07812500 </v>
   <v>      -0.23437500       0.26562500       0.07812500 </v>
   <v>      -0.20312500       0.26562500       0.07812500 </v>
   <v>      -0.17187500       0.26562500       0.07812500 </v>
   <v>       0.29687500       0.29687500       0.07812500 </v>
   <v>      -0.29687500       0.29687500       0.07812500 </v>
   <v>      -0.26562500       0.29687500       0.07812500 </v>
   <v>      -0.23437500       0.29687500       0.07812500 </v>
   <v>      -0.20312500       0.29687500       0.07812500 </v>
   <v>      -0.32812500       0.32812500       0.07812500 </v>
   <v>      -0.29687500       0.32812500       0.07812500 </v>
   <v>      -0.26562500       0.32812500       0.07812500 </v>
   <v>      -0.23437500       0.32812500       0.07812500 </v>
   <v>      -0.20312500       0.32812500       0.07812500 </v>
   <v>      -0.35937500       0.35937500       0.07812500 </v>
   <v>      -0.32812500       0.35937500       0.07812500 </v>
   <v>      -0.29687500       0.35937500       0.07812500 </v>
   <v>      -0.26562500       0.35937500       0.07812500 </v>
   <v>      -0.23437500       0.35937500       0.07812500 </v>
   <v>      -0.39062500       0.39062500       0.07812500 </v>
   <v>      -0.35937500       0.39062500       0.07812500 </v>
   <v>      -0.32812500       0.39062500       0.07812500 </v>
   <v>      -0.29687500       0.39062500       0.07812500 </v>
   <v>      -0.26562500       0.39062500       0.07812500 </v>
   <v>      -0.23437500       0.39062500       0.07812500 </v>
   <v>      -0.42187500       0.42187500       0.07812500 </v>
   <v>      -0.39062500       0.42187500       0.07812500 </v>
   <v>      -0.35937500       0.42187500       0.07812500 </v>
   <v>      -0.32812500       0.42187500       0.07812500 </v>
   <v>      -0.29687500       0.42187500       0.07812500 </v>
   <v>      -0.26562500       0.42187500       0.07812500 </v>
   <v>      -0.45312500       0.45312500       0.07812500 </v>
   <v>      -0.42187500       0.45312500       0.07812500 </v>
   <v>      -0.39062500       0.45312500       0.07812500 </v>
   <v>      -0.35937500       0.45312500       0.07812500 </v>
   <v>      -0.32812500       0.45312500       0.07812500 </v>
   <v>      -0.29687500       0.45312500       0.07812500 </v>
   <v>      -0.26562500       0.45312500       0.07812500 </v>
   <v>      -0.48437500       0.48437500       0.07812500 </v>
   <v>      -0.45312500       0.48437500       0.07812500 </v>
   <v>      -0.42187500       0.48437500       0.07812500 </v>
   <v>      -0.39062500       0.48437500       0.07812500 </v>
   <v>      -0.35937500       0.48437500       0.07812500 </v>
   <v>      -0.32812500       0.48437500       0.07812500 </v>
   <v>      -0.29687500       0.48437500       0.07812500 </v>
   <v>      -0.48437500      -0.48437500       0.07812500 </v>
   <v>      -0.45312500      -0.48437500       0.07812500 </v>
   <v>      -0.42187500      -0.48437500       0.07812500 </v>
   <v>      -0.39062500      -0.48437500       0.07812500 </v>
   <v>      -0.35937500      -0.48437500       0.07812500 </v>
   <v>      -0.32812500      -0.48437500       0.07812500 </v>
   <v>      -0.29687500      -0.48437500       0.07812500 </v>
   <v>      -0.45312500      -0.45312500       0.07812500 </v>
   <v>      -0.42187500      -0.45312500       0.07812500 </v>
   <v>      -0.39062500      -0.45312500       0.07812500 </v>
   <v>      -0.35937500      -0.45312500       0.07812500 </v>
   <v>      -0.32812500      -0.45312500       0.07812500 </v>
   <v>      -0.42187500      -0.42187500       0.07812500 </v>
   <v>      -0.39062500      -0.42187500       0.07812500 </v>
   <v>      -0.35937500      -0.42187500       0.07812500 </v>
   <v>      -0.32812500      -0.42187500       0.07812500 </v>
   <v>      -0.39062500      -0.39062500       0.07812500 </v>
   <v>      -0.35937500      -0.39062500       0.07812500 </v>
   <v>      -0.35937500      -0.35937500       0.07812500 </v>
   <v>       0.10937500       0.10937500       0.10937500 </v>
   <v>       0.14062500       0.10937500       0.10937500 </v>
   <v>       0.17187500       0.10937500       0.10937500 </v>
   <v>       0.20312500       0.10937500       0.10937500 </v>
   <v>       0.23437500       0.10937500       0.10937500 </v>
   <v>       0.26562500       0.10937500       0.10937500 </v>
   <v>       0.29687500       0.10937500       0.10937500 </v>
   <v>       0.32812500       0.10937500       0.10937500 </v>
   <v>       0.35937500       0.10937500       0.10937500 </v>
   <v>       0.39062500       0.10937500       0.10937500 </v>
   <v>      -0.10937500       0.10937500       0.10937500 </v>
   <v>       0.14062500       0.14062500       0.10937500 </v>
   <v>       0.17187500       0.14062500       0.10937500 </v>
   <v>       0.20312500       0.14062500       0.10937500 </v>
   <v>       0.23437500       0.14062500       0.10937500 </v>
   <v>       0.26562500       0.14062500       0.10937500 </v>
   <v>       0.29687500       0.14062500       0.10937500 </v>
   <v>       0.32812500       0.14062500       0.10937500 </v>
   <v>       0.35937500       0.14062500       0.10937500 </v>
   <v>      -0.14062500       0.14062500       0.10937500 </v>
   <v>       0.17187500       0.17187500       0.10937500 </v>
   <v>       0.20312500       0.17187500       0.10937500 </v>
   <v>       0.23437500       0.17187500       0.10937500 </v>
   <v>       0.26562500       0.17187500       0.10937500 </v>
   <v>       0.29687500       0.17187500       0.10937500 </v>
   <v>       0.32812500       0.17187500       0.10937500 </v>
   <v>       0.35937500       0.17187500       0.10937500 </v>
   <v>      -0.17187500       0.17187500       0.10937500 </v>
   <v>      -0.14062500       0.17187500       0.10937500 </v>
   <v>       0.20312500       0.20312500       0.10937500 </v>
   <v>       0.23437500       0.20312500       0.10937500 </v>
   <v>       0.26562500       0.20312500       0.10937500 </v>
   <v>       0.29687500       0.20312500       0.10937500 </v>
   <v>       0.32812500       0.20312500       0.10937500 </v>
   <v>      -0.20312500       0.20312500       0.10937500 </v>
   <v>      -0.17187500       0.20312500       0.10937500 </v>
   <v>       0.23437500       0.23437500       0.10937500 </v>
   <v>       0.26562500       0.23437500       0.10937500 </v>
   <v>       0.29687500       0.23437500       0.10937500 </v>
   <v>       0.32812500       0.23437500       0.10937500 </v>
   <v>      -0.23437500       0.23437500       0.10937500 </v>
   <v>      -0.20312500       0.23437500       0.10937500 </v>
   <v>      -0.17187500       0.23437500       0.10937500 </v>
   <v>       0.26562500       0.26562500       0.10937500 </v>
   <v>       0.29687500       0.26562500       0.10937500 </v>
   <v>      -0.26562500       0.26562500       0.10937500 </v>
   <v>      -0.23437500       0.26562500       0.10937500 </v>
   <v>      -0.20312500       0.26562500       0.10937500 </v>
   <v>       0.29687500       0.29687500       0.10937500 </v>
   <v>      -0.29687500       0.29687500       0.10937500 </v>
   <v>      -0.26562500       0.29687500       0.10937500 </v>
   <v>      -0.23437500       0.29687500       0.10937500 </v>
   <v>      -0.20312500       0.29687500       0.10937500 </v>
   <v>      -0.32812500       0.32812500       0.10937500 </v>
   <v>      -0.29687500       0.32812500       0.10937500 </v>
   <v>      -0.26562500       0.32812500       0.10937500 </v>
   <v>      -0.23437500       0.32812500       0.10937500 </v>
   <v>      -0.35937500       0.35937500       0.10937500 </v>
   <v>      -0.32812500       0.35937500       0.10937500 </v>
   <v>      -0.29687500       0.35937500       0.10937500 </v>
   <v>      -0.26562500       0.35937500       0.10937500 </v>
   <v>      -0.23437500       0.35937500       0.10937500 </v>
   <v>      -0.39062500       0.39062500       0.10937500 </v>
   <v>      -0.35937500       0.39062500       0.10937500 </v>
   <v>      -0.32812500       0.39062500       0.10937500 </v>
   <v>      -0.29687500       0.39062500       0.10937500 </v>
   <v>      -0.26562500       0.39062500       0.10937500 </v>
   <v>      -0.42187500       0.42187500       0.10937500 </v>
   <v>      -0.39062500       0.42187500       0.10937500 </v>
   <v>      -0.35937500       0.42187500       0.10937500 </v>
   <v>      -0.32812500       0.42187500       0.10937500 </v>
   <v>      -0.29687500       0.42187500       0.10937500 </v>
   <v>      -0.26562500       0.42187500       0.10937500 </v>
   <v>      -0.45312500       0.45312500       0.10937500 </v>
   <v>      -0.42187500       0.45312500       0.10937500 </v>
   <v>      -0.39062500       0.45312500       0.10937500 </v>
   <v>      -0.35937500       0.45312500       0.10937500 </v>
   <v>      -0.32812500       0.45312500       0.10937500 </v>
   <v>      -0.29687500       0.45312500       0.10937500 </v>
   <v>      -0.48437500       0.48437500       0.10937500 </v>
   <v>      -0.45312500       0.48437500       0.10937500 </v>
   <v>      -0.42187500       0.48437500       0.10937500 </v>
   <v>      -0.39062500       0.48437500       0.10937500 </v>
   <v>      -0.35937500       0.48437500       0.10937500 </v>
   <v>      -0.32812500       0.48437500       0.10937500 </v>
   <v>      -0.29687500       0.48437500       0.10937500 </v>
   <v>      -0.48437500      -0.48437500       0.10937500 </v>
   <v>      -0.45312500      -0.48437500       0.10937500 </v>
   <v>      -0.42187500      -0.48437500       0.10937500 </v>
   <v>      -0.39062500      -0.48437500       0.10937500 </v>
   <v>      -0.35937500      -0.48437500       0.10937500 </v>
   <v>      -0.32812500      -0.48437500       0.10937500 </v>
   <v>      -0.45312500      -0.45312500       0.10937500 </v>
   <v>      -0.42187500      -0.45312500       0.10937500 </v>
   <v>      -0.39062500      -0.45312500       0.10937500 </v>
   <v>      -0.35937500      -0.45312500       0.10937500 </v>
   <v>      -0.32812500      -0.45312500       0.10937500 </v>
   <v>      -0.42187500      -0.42187500       0.10937500 </v>
   <v>      -0.39062500      -0.42187500       0.10937500 </v>
   <v>      -0.35937500      -0.42187500       0.10937500 </v>
   <v>      -0.39062500      -0.39062500       0.10937500 </v>
   <v>      -0.35937500      -0.39062500       0.10937500 </v>
   <v>       0.14062500       0.14062500       0.14062500 </v>
   <v>       0.17187500       0.14062500       0.14062500 </v>
   <v>       0.20312500       0.14062500       0.14062500 </v>
   <v>       0.23437500       0.14062500       0.14062500 </v>
   <v>       0.26562500       0.14062500       0.14062500 </v>
   <v>       0.29687500       0.14062500       0.14062500 </v>
   <v>       0.32812500       0.14062500       0.14062500 </v>
   <v>       0.35937500       0.14062500       0.14062500 </v>
   <v>      -0.14062500       0.14062500       0.14062500 </v>
   <v>       0.17187500       0.17187500       0.14062500 </v>
   <v>       0.20312500       0.17187500       0.14062500 </v>
   <v>       0.23437500       0.17187500       0.14062500 </v>
   <v>       0.26562500       0.17187500       0.14062500 </v>
   <v>       0.29687500       0.17187500       0.14062500 </v>
   <v>       0.32812500       0.17187500       0.14062500 </v>
   <v>      -0.17187500       0.17187500       0.14062500 </v>
   <v>       0.20312500       0.20312500       0.14062500 </v>
   <v>       0.23437500       0.20312500       0.14062500 </v>
   <v>       0.26562500       0.20312500       0.14062500 </v>
   <v>       0.29687500       0.20312500       0.14062500 </v>
   <v>       0.32812500       0.20312500       0.14062500 </v>
   <v>      -0.20312500       0.20312500       0.14062500 </v>
   <v>      -0.17187500       0.20312500       0.14062500 </v>
   <v>       0.23437500       0.23437500       0.14062500 </v>
   <v>       0.26562500       0.23437500       0.14062500 </v>
   <v>       0.29687500       0.23437500       0.14062500 </v>
   <v>      -0.23437500       0.23437500       0.14062500 </v>
   <v>      -0.20312500       0.23437500       0.14062500 </v>
   <v>       0.26562500       0.26562500       0.14062500 </v>
   <v>       0.29687500       0.26562500       0.14062500 </v>
   <v>      -0.26562500       0.26562500       0.14062500 </v>
   <v>      -0.23437500       0.26562500       0.14062500 </v>
   <v>      -0.20312500       0.26562500       0.14062500 </v>
   <v>      -0.29687500       0.29687500       0.14062500 </v>
   <v>      -0.26562500       0.29687500       0.14062500 </v>
   <v>      -0.23437500       0.29687500       0.14062500 </v>
   <v>      -0.32812500       0.32812500       0.14062500 </v>
   <v>      -0.29687500       0.32812500       0.14062500 </v>
   <v>      -0.26562500       0.32812500       0.14062500 </v>
   <v>      -0.23437500       0.32812500       0.14062500 </v>
   <v>      -0.35937500       0.35937500       0.14062500 </v>
   <v>      -0.32812500       0.35937500       0.14062500 </v>
   <v>      -0.29687500       0.35937500       0.14062500 </v>
   <v>      -0.26562500       0.35937500       0.14062500 </v>
   <v>      -0.39062500       0.39062500       0.14062500 </v>
   <v>      -0.35937500       0.39062500       0.14062500 </v>
   <v>      -0.32812500       0.39062500       0.14062500 </v>
   <v>      -0.29687500       0.39062500       0.14062500 </v>
   <v>      -0.26562500       0.39062500       0.14062500 </v>
   <v>      -0.42187500       0.42187500       0.14062500 </v>
   <v>      -0.39062500       0.42187500       0.14062500 </v>
   <v>      -0.35937500       0.42187500       0.14062500 </v>
   <v>      -0.32812500       0.42187500       0.14062500 </v>
   <v>      -0.29687500       0.42187500       0.14062500 </v>
   <v>      -0.45312500       0.45312500       0.14062500 </v>
   <v>      -0.42187500       0.45312500       0.14062500 </v>
   <v>      -0.39062500       0.45312500       0.14062500 </v>
   <v>      -0.35937500       0.45312500       0.14062500 </v>
   <v>      -0.32812500       0.45312500       0.14062500 </v>
   <v>      -0.29687500       0.45312500       0.14062500 </v>
   <v>      -0.48437500       0.48437500       0.14062500 </v>
   <v>      -0.45312500       0.48437500       0.14062500 </v>
   <v>      -0.42187500       0.48437500       0.14062500 </v>
   <v>      -0.39062500       0.48437500       0.14062500 </v>
   <v>      -0.35937500       0.48437500       0.14062500 </v>
   <v>      -0.32812500       0.48437500       0.14062500 </v>
   <v>      -0.48437500      -0.48437500       0.14062500 </v>
   <v>      -0.45312500      -0.48437500       0.14062500 </v>
   <v>      -0.42187500      -0.48437500       0.14062500 </v>
   <v>      -0.39062500      -0.48437500       0.14062500 </v>
   <v>      -0.35937500      -0.48437500       0.14062500 </v>
   <v>      -0.32812500      -0.48437500       0.14062500 </v>
   <v>      -0.45312500      -0.45312500       0.14062500 </v>
   <v>      -0.42187500      -0.45312500       0.14062500 </v>
   <v>      -0.39062500      -0.45312500       0.14062500 </v>
   <v>      -0.35937500      -0.45312500       0.14062500 </v>
   <v>      -0.42187500      -0.42187500       0.14062500 </v>
   <v>      -0.39062500      -0.42187500       0.14062500 </v>
   <v>      -0.35937500      -0.42187500       0.14062500 </v>
   <v>      -0.39062500      -0.39062500       0.14062500 </v>
   <v>       0.17187500       0.17187500       0.17187500 </v>
   <v>       0.20312500       0.17187500       0.17187500 </v>
   <v>       0.23437500       0.17187500       0.17187500 </v>
   <v>       0.26562500       0.17187500       0.17187500 </v>
   <v>       0.29687500       0.17187500       0.17187500 </v>
   <v>       0.32812500       0.17187500       0.17187500 </v>
   <v>      -0.17187500       0.17187500       0.17187500 </v>
   <v>       0.20312500       0.20312500       0.17187500 </v>
   <v>       0.23437500       0.20312500       0.17187500 </v>
   <v>       0.26562500       0.20312500       0.17187500 </v>
   <v>       0.29687500       0.20312500       0.17187500 </v>
   <v>      -0.20312500       0.20312500       0.17187500 </v>
   <v>       0.23437500       0.23437500       0.17187500 </v>
   <v>       0.26562500       0.23437500       0.17187500 </v>
   <v>       0.29687500       0.23437500       0.17187500 </v>
   <v>      -0.23437500       0.23437500       0.17187500 </v>
   <v>      -0.20312500       0.23437500       0.17187500 </v>
   <v>       0.26562500       0.26562500       0.17187500 </v>
   <v>      -0.26562500       0.26562500       0.17187500 </v>
   <v>      -0.23437500       0.26562500       0.17187500 </v>
   <v>      -0.29687500       0.29687500       0.17187500 </v>
   <v>      -0.26562500       0.29687500       0.17187500 </v>
   <v>      -0.23437500       0.29687500       0.17187500 </v>
   <v>      -0.32812500       0.32812500       0.17187500 </v>
   <v>      -0.29687500       0.32812500       0.17187500 </v>
   <v>      -0.26562500       0.32812500       0.17187500 </v>
   <v>      -0.35937500       0.35937500       0.17187500 </v>
   <v>      -0.32812500       0.35937500       0.17187500 </v>
   <v>      -0.29687500       0.35937500       0.17187500 </v>
   <v>      -0.26562500       0.35937500       0.17187500 </v>
   <v>      -0.39062500       0.39062500       0.17187500 </v>
   <v>      -0.35937500       0.39062500       0.17187500 </v>
   <v>      -0.32812500       0.39062500       0.17187500 </v>
   <v>      -0.29687500       0.39062500       0.17187500 </v>
   <v>      -0.42187500       0.42187500       0.17187500 </v>
   <v>      -0.39062500       0.42187500       0.17187500 </v>
   <v>      -0.35937500       0.42187500       0.17187500 </v>
   <v>      -0.32812500       0.42187500       0.17187500 </v>
   <v>      -0.29687500       0.42187500       0.17187500 </v>
   <v>      -0.45312500       0.45312500       0.17187500 </v>
   <v>      -0.42187500       0.45312500       0.17187500 </v>
   <v>      -0.39062500       0.45312500       0.17187500 </v>
   <v>      -0.35937500       0.45312500       0.17187500 </v>
   <v>      -0.32812500       0.45312500       0.17187500 </v>
   <v>      -0.48437500       0.48437500       0.17187500 </v>
   <v>      -0.45312500       0.48437500       0.17187500 </v>
   <v>      -0.42187500       0.48437500       0.17187500 </v>
   <v>      -0.39062500       0.48437500       0.17187500 </v>
   <v>      -0.35937500       0.48437500       0.17187500 </v>
   <v>      -0.32812500       0.48437500       0.17187500 </v>
   <v>      -0.48437500      -0.48437500       0.17187500 </v>
   <v>      -0.45312500      -0.48437500       0.17187500 </v>
   <v>      -0.42187500      -0.48437500       0.17187500 </v>
   <v>      -0.39062500      -0.48437500       0.17187500 </v>
   <v>      -0.35937500      -0.48437500       0.17187500 </v>
   <v>      -0.45312500      -0.45312500       0.17187500 </v>
   <v>      -0.42187500      -0.45312500       0.17187500 </v>
   <v>      -0.39062500      -0.45312500       0.17187500 </v>
   <v>      -0.35937500      -0.45312500       0.17187500 </v>
   <v>      -0.42187500      -0.42187500       0.17187500 </v>
   <v>      -0.39062500      -0.42187500       0.17187500 </v>
   <v>      -0.39062500      -0.39062500       0.17187500 </v>
   <v>       0.20312500       0.20312500       0.20312500 </v>
   <v>       0.23437500       0.20312500       0.20312500 </v>
   <v>       0.26562500       0.20312500       0.20312500 </v>
   <v>       0.29687500       0.20312500       0.20312500 </v>
   <v>      -0.20312500       0.20312500       0.20312500 </v>
   <v>       0.23437500       0.23437500       0.20312500 </v>
   <v>       0.26562500       0.23437500       0.20312500 </v>
   <v>      -0.23437500       0.23437500       0.20312500 </v>
   <v>       0.26562500       0.26562500       0.20312500 </v>
   <v>      -0.26562500       0.26562500       0.20312500 </v>
   <v>      -0.23437500       0.26562500       0.20312500 </v>
   <v>      -0.29687500       0.29687500       0.20312500 </v>
   <v>      -0.26562500       0.29687500       0.20312500 </v>
   <v>      -0.32812500       0.32812500       0.20312500 </v>
   <v>      -0.29687500       0.32812500       0.20312500 </v>
   <v>      -0.26562500       0.32812500       0.20312500 </v>
   <v>      -0.35937500       0.35937500       0.20312500 </v>
   <v>      -0.32812500       0.35937500       0.20312500 </v>
   <v>      -0.29687500       0.35937500       0.20312500 </v>
   <v>      -0.39062500       0.39062500       0.20312500 </v>
   <v>      -0.35937500       0.39062500       0.20312500 </v>
   <v>      -0.32812500       0.39062500       0.20312500 </v>
   <v>      -0.29687500       0.39062500       0.20312500 </v>
   <v>      -0.42187500       0.42187500       0.20312500 </v>
   <v>      -0.39062500       0.42187500       0.20312500 </v>
   <v>      -0.35937500       0.42187500       0.20312500 </v>
   <v>      -0.32812500       0.42187500       0.20312500 </v>
   <v>      -0.45312500       0.45312500       0.20312500 </v>
   <v>      -0.42187500       0.45312500       0.20312500 </v>
   <v>      -0.39062500       0.45312500       0.20312500 </v>
   <v>      -0.35937500       0.45312500       0.20312500 </v>
   <v>      -0.32812500       0.45312500       0.20312500 </v>
   <v>      -0.48437500       0.48437500       0.20312500 </v>
   <v>      -0.45312500       0.48437500       0.20312500 </v>
   <v>      -0.42187500       0.48437500       0.20312500 </v>
   <v>      -0.39062500       0.48437500       0.20312500 </v>
   <v>      -0.35937500       0.48437500       0.20312500 </v>
   <v>      -0.48437500      -0.48437500       0.20312500 </v>
   <v>      -0.45312500      -0.48437500       0.20312500 </v>
   <v>      -0.42187500      -0.48437500       0.20312500 </v>
   <v>      -0.39062500      -0.48437500       0.20312500 </v>
   <v>      -0.35937500      -0.48437500       0.20312500 </v>
   <v>      -0.45312500      -0.45312500       0.20312500 </v>
   <v>      -0.42187500      -0.45312500       0.20312500 </v>
   <v>      -0.39062500      -0.45312500       0.20312500 </v>
   <v>      -0.42187500      -0.42187500       0.20312500 </v>
   <v>      -0.39062500      -0.42187500       0.20312500 </v>
   <v>       0.23437500       0.23437500       0.23437500 </v>
   <v>       0.26562500       0.23437500       0.23437500 </v>
   <v>      -0.23437500       0.23437500       0.23437500 </v>
   <v>      -0.26562500       0.26562500       0.23437500 </v>
   <v>      -0.29687500       0.29687500       0.23437500 </v>
   <v>      -0.26562500       0.29687500       0.23437500 </v>
   <v>      -0.32812500       0.32812500       0.23437500 </v>
   <v>      -0.29687500       0.32812500       0.23437500 </v>
   <v>      -0.35937500       0.35937500       0.23437500 </v>
   <v>      -0.32812500       0.35937500       0.23437500 </v>
   <v>      -0.29687500       0.35937500       0.23437500 </v>
   <v>      -0.39062500       0.39062500       0.23437500 </v>
   <v>      -0.35937500       0.39062500       0.23437500 </v>
   <v>      -0.32812500       0.39062500       0.23437500 </v>
   <v>      -0.42187500       0.42187500       0.23437500 </v>
   <v>      -0.39062500       0.42187500       0.23437500 </v>
   <v>      -0.35937500       0.42187500       0.23437500 </v>
   <v>      -0.32812500       0.42187500       0.23437500 </v>
   <v>      -0.45312500       0.45312500       0.23437500 </v>
   <v>      -0.42187500       0.45312500       0.23437500 </v>
   <v>      -0.39062500       0.45312500       0.23437500 </v>
   <v>      -0.35937500       0.45312500       0.23437500 </v>
   <v>      -0.48437500       0.48437500       0.23437500 </v>
   <v>      -0.45312500       0.48437500       0.23437500 </v>
   <v>      -0.42187500       0.48437500       0.23437500 </v>
   <v>      -0.39062500       0.48437500       0.23437500 </v>
   <v>      -0.35937500       0.48437500       0.23437500 </v>
   <v>      -0.48437500      -0.48437500       0.23437500 </v>
   <v>      -0.45312500      -0.48437500       0.23437500 </v>
   <v>      -0.42187500      -0.48437500       0.23437500 </v>
   <v>      -0.39062500      -0.48437500       0.23437500 </v>
   <v>      -0.45312500      -0.45312500       0.23437500 </v>
   <v>      -0.42187500      -0.45312500       0.23437500 </v>
   <v>      -0.39062500      -0.45312500       0.23437500 </v>
   <v>      -0.42187500      -0.42187500       0.23437500 </v>
   <v>      -0.26562500       0.26562500       0.26562500 </v>
   <v>      -0.29687500       0.29687500       0.26562500 </v>
   <v>      -0.32812500       0.32812500       0.26562500 </v>
   <v>      -0.29687500       0.32812500       0.26562500 </v>
   <v>      -0.35937500       0.35937500       0.26562500 </v>
   <v>      -0.32812500       0.35937500       0.26562500 </v>
   <v>      -0.39062500       0.39062500       0.26562500 </v>
   <v>      -0.35937500       0.39062500       0.26562500 </v>
   <v>      -0.32812500       0.39062500       0.26562500 </v>
   <v>      -0.42187500       0.42187500       0.26562500 </v>
   <v>      -0.39062500       0.42187500       0.26562500 </v>
   <v>      -0.35937500       0.42187500       0.26562500 </v>
   <v>      -0.45312500       0.45312500       0.26562500 </v>
   <v>      -0.42187500       0.45312500       0.26562500 </v>
   <v>      -0.39062500       0.45312500       0.26562500 </v>
   <v>      -0.35937500       0.45312500       0.26562500 </v>
   <v>      -0.48437500       0.48437500       0.26562500 </v>
   <v>      -0.45312500       0.48437500       0.26562500 </v>
   <v>      -0.42187500       0.48437500       0.26562500 </v>
   <v>      -0.39062500       0.48437500       0.26562500 </v>
   <v>      -0.48437500      -0.48437500       0.26562500 </v>
   <v>      -0.45312500      -0.48437500       0.26562500 </v>
   <v>      -0.42187500      -0.48437500       0.26562500 </v>
   <v>      -0.39062500      -0.48437500       0.26562500 </v>
   <v>      -0.45312500      -0.45312500       0.26562500 </v>
   <v>      -0.42187500      -0.45312500       0.26562500 </v>
   <v>      -0.42187500      -0.42187500       0.26562500 </v>
   <v>      -0.29687500       0.29687500       0.29687500 </v>
   <v>      -0.32812500       0.32812500       0.29687500 </v>
   <v>      -0.35937500       0.35937500       0.29687500 </v>
   <v>      -0.32812500       0.35937500       0.29687500 </v>
   <v>      -0.39062500       0.39062500       0.29687500 </v>
   <v>      -0.35937500       0.39062500       0.29687500 </v>
   <v>      -0.42187500       0.42187500       0.29687500 </v>
   <v>      -0.39062500       0.42187500       0.29687500 </v>
   <v>      -0.35937500       0.42187500       0.29687500 </v>
   <v>      -0.45312500       0.45312500       0.29687500 </v>
   <v>      -0.42187500       0.45312500       0.29687500 </v>
   <v>      -0.39062500       0.45312500       0.29687500 </v>
   <v>      -0.48437500       0.48437500       0.29687500 </v>
   <v>      -0.45312500       0.48437500       0.29687500 </v>
   <v>      -0.42187500       0.48437500       0.29687500 </v>
   <v>      -0.39062500       0.48437500       0.29687500 </v>
   <v>      -0.48437500      -0.48437500       0.29687500 </v>
   <v>      -0.45312500      -0.48437500       0.29687500 </v>
   <v>      -0.42187500      -0.48437500       0.29687500 </v>
   <v>      -0.45312500      -0.45312500       0.29687500 </v>
   <v>      -0.42187500      -0.45312500       0.29687500 </v>
   <v>      -0.32812500       0.32812500       0.32812500 </v>
   <v>      -0.35937500       0.35937500       0.32812500 </v>
   <v>      -0.39062500       0.39062500       0.32812500 </v>
   <v>      -0.35937500       0.39062500       0.32812500 </v>
   <v>      -0.42187500       0.42187500       0.32812500 </v>
   <v>      -0.39062500       0.42187500       0.32812500 </v>
   <v>      -0.45312500       0.45312500       0.32812500 </v>
   <v>      -0.42187500       0.45312500       0.32812500 </v>
   <v>      -0.39062500       0.45312500       0.32812500 </v>
   <v>      -0.48437500       0.48437500       0.32812500 </v>
   <v>      -0.45312500       0.48437500       0.32812500 </v>
   <v>      -0.42187500       0.48437500       0.32812500 </v>
   <v>      -0.48437500      -0.48437500       0.32812500 </v>
   <v>      -0.45312500      -0.48437500       0.32812500 </v>
   <v>      -0.42187500      -0.48437500       0.32812500 </v>
   <v>      -0.45312500      -0.45312500       0.32812500 </v>
   <v>      -0.35937500       0.35937500       0.35937500 </v>
   <v>      -0.39062500       0.39062500       0.35937500 </v>
   <v>      -0.42187500       0.42187500       0.35937500 </v>
   <v>      -0.39062500       0.42187500       0.35937500 </v>
   <v>      -0.45312500       0.45312500       0.35937500 </v>
   <v>      -0.42187500       0.45312500       0.35937500 </v>
   <v>      -0.48437500       0.48437500       0.35937500 </v>
   <v>      -0.45312500       0.48437500       0.35937500 </v>
   <v>      -0.42187500       0.48437500       0.35937500 </v>
   <v>      -0.48437500      -0.48437500       0.35937500 </v>
   <v>      -0.45312500      -0.48437500       0.35937500 </v>
   <v>      -0.45312500      -0.45312500       0.35937500 </v>
   <v>      -0.39062500       0.39062500       0.39062500 </v>
   <v>      -0.42187500       0.42187500       0.39062500 </v>
   <v>      -0.45312500       0.45312500       0.39062500 </v>
   <v>      -0.42187500       0.45312500       0.39062500 </v>
   <v>      -0.48437500       0.48437500       0.39062500 </v>
   <v>      -0.45312500       0.48437500       0.39062500 </v>
   <v>      -0.48437500      -0.48437500       0.39062500 </v>
   <v>      -0.45312500      -0.48437500       0.39062500 </v>
   <v>      -0.42187500       0.42187500       0.42187500 </v>
   <v>      -0.45312500       0.45312500       0.42187500 </v>
   <v>      -0.48437500       0.48437500       0.42187500 </v>
   <v>      -0.45312500       0.48437500       0.42187500 </v>
   <v>      -0.48437500      -0.48437500       0.42187500 </v>
   <v>      -0.45312500       0.45312500       0.45312500 </v>
   <v>      -0.48437500       0.48437500       0.45312500 </v>
   <v>      -0.48437500      -0.48437500       0.45312500 </v>
   <v>      -0.48437500       0.48437500       0.48437500 </v>
  </varray>
  <varray name="weights" >
   <v>       0.00024414 </v>
   <v>       0.00073242 </v>
   <v>       0.00073242 </v>
   <v>       0.00073242 </v>
   <v>       0.00073242 </v>
   <v>       0.00073242 </v>
   <v>       0.00073242 </v>
   <v>       0.00073242 </v>
   <v>       0.00073242 </v>
   <v>       0.00073242 </v>
   <v>       0.00073242 </v>
   <v>       0.00073242 </v>
   <v>       0.00073242 </v>
   <v>       0.00073242 </v>
   <v>       0.00073242 </v>
   <v>       0.00036621 </v>
   <v>       0.00018311 </v>
   <v>       0.00073242 </v>
   <v>       0.00146484 </v>
   <v>       0.00146484 </v>
   <v>       0.00146484 </v>
   <v>       0.00146484 </v>
   <v>       0.00146484 </v>
   <v>       0.00146484 </v>
   <v>       0.00146484 </v>
   <v>       0.00146484 </v>
   <v>       0.00146484 </v>
   <v>       0.00146484 </v>
   <v>       0.00146484 </v>
   <v>       0.00146484 </v>
   <v>       0.00146484 </v>
   <v>       0.00073242 </v>
   <v>       0.00073242 </v>
   <v>       0.00146484 </v>
   <v>       0.00146484 </v>
   <v>       0.00146484 </v>
   <v>       0.00146484 </v>
   <v>       0.00146484 </v>
   <v>       0.00146484 </v>
   <v>       0.00146484 </v>
   <v>       0.00146484 </v>
   <v>       0.00146484 </v>
   <v>       0.00146484 </v>
   <v>       0.00146484 </v>
   <v>       0.00073242 </v>
   <v>       0.00073242 </v>
   <v>       0.00073242 </v>
   <v>       0.00073242 </v>
   <v>       0.00146484 </v>
   <v>       0.00146484 </v>
   <v>       0.00146484 </v>
   <v>       0.00146484 </v>
   <v>       0.00146484 </v>
   <v>       0.00146484 </v>
   <v>       0.00146484 </v>
   <v>       0.00146484 </v>
   <v>       0.00146484 </v>
   <v>       0.00146484 </v>
   <v>       0.00073242 </v>
   <v>       0.00146484 </v>
   <v>       0.00073242 </v>
   <v>       0.00146484 </v>
   <v>       0.00146484 </v>
   <v>       0.00146484 </v>
   <v>       0.00146484 </v>
   <v>       0.00146484 </v>
   <v>       0.00146484 </v>
   <v>       0.00146484 </v>
   <v>       0.00146484 </v>
   <v>       0.00073242 </v>
   <v>       0.00073242 </v>
   <v>       0.00146484 </v>
   <v>       0.00073242 </v>
   <v>       0.00073242 </v>
   <v>       0.00146484 </v>
   <v>       0.00146484 </v>
   <v>       0.00146484 </v>
   <v>       0.00146484 </v>
   <v>       0.00146484 </v>
   <v>       0.00146484 </v>
   <v>       0.00146484 </v>
   <v>       0.00073242 </v>
   <v>       0.00146484 </v>
   <v>       0.00146484 </v>
   <v>       0.00073242 </v>
   <v>       0.00146484 </v>
   <v>       0.00146484 </v>
   <v>       0.00146484 </v>
   <v>       0.00146484 </v>
   <v>       0.00146484 </v>
   <v>       0.00073242 </v>
   <v>       0.00073242 </v>
   <v>       0.00146484 </v>
   <v>       0.00146484 </v>
   <v>       0.00073242 </v>
   <v>       0.00073242 </v>
   <v>       0.00146484 </v>
   <v>       0.00146484 </v>
   <v>       0.00146484 </v>
   <v>       0.00146484 </v>
   <v>       0.00073242 </v>
   <v>       0.00146484 </v>
   <v>       0.00146484 </v>
   <v>       0.00146484 </v>
   <v>       0.00073242 </v>
   <v>       0.00146484 </v>
   <v>       0.00146484 </v>
   <v>       0.00073242 </v>
   <v>       0.00073242 </v>
   <v>       0.00146484 </v>
   <v>       0.00146484 </v>
   <v>       0.00146484 </v>
   <v>       0.00073242 </v>
   <v>       0.00073242 </v>
   <v>       0.00146484 </v>
   <v>       0.00073242 </v>
   <v>       0.00146484 </v>
   <v>       0.00146484 </v>
   <v>       0.00146484 </v>
   <v>       0.00146484 </v>
   <v>       0.00024414 </v>
   <v>       0.00073242 </v>
   <v>       0.00146484 </v>
   <v>       0.00146484 </v>
   <v>       0.00146484 </v>
   <v>       0.00146484 </v>
   <v>       0.00073242 </v>
   <v>       0.00073242 </v>
   <v>       0.00146484 </v>
   <v>       0.00146484 </v>
   <v>       0.00146484 </v>
   <v>       0.00146484 </v>
   <v>       0.00146484 </v>
   <v>       0.00073242 </v>
   <v>       0.00146484 </v>
   <v>       0.00146484 </v>
   <v>       0.00146484 </v>
   <v>       0.00146484 </v>
   <v>       0.00146484 </v>
   <v>       0.00073242 </v>
   <v>       0.00073242 </v>
   <v>       0.00146484 </v>
   <v>       0.00146484 </v>
   <v>       0.00146484 </v>
   <v>       0.00146484 </v>
   <v>       0.00146484 </v>
   <v>       0.00146484 </v>
   <v>       0.00073242 </v>
   <v>       0.00146484 </v>
   <v>       0.00146484 </v>
   <v>       0.00146484 </v>
   <v>       0.00146484 </v>
   <v>       0.00146484 </v>
   <v>       0.00146484 </v>
   <v>       0.00073242 </v>
   <v>       0.00073242 </v>
   <v>       0.00146484 </v>
   <v>       0.00146484 </v>
   <v>       0.00146484 </v>
   <v>       0.00146484 </v>
   <v>       0.00146484 </v>
   <v>       0.00146484 </v>
   <v>       0.00146484 </v>
   <v>       0.00073242 </v>
   <v>       0.00146484 </v>
   <v>       0.00146484 </v>
   <v>       0.00146484 </v>
   <v>       0.00146484 </v>
   <v>       0.00146484 </v>
   <v>       0.00146484 </v>
   <v>       0.00073242 </v>
   <v>       0.00073242 </v>
   <v>       0.00146484 </v>
   <v>       0.00146484 </v>
   <v>       0.00146484 </v>
   <v>       0.00146484 </v>
   <v>       0.00146484 </v>
   <v>       0.00073242 </v>
   <v>       0.00146484 </v>
   <v>       0.00146484 </v>
   <v>       0.00146484 </v>
   <v>       0.00073242 </v>
   <v>       0.00073242 </v>
   <v>       0.00146484 </v>
   <v>       0.00146484 </v>
   <v>       0.00073242 </v>
   <v>       0.00073242 </v>
   <v>       0.00024414 </v>
   <v>       0.00073242 </v>
   <v>       0.00073242 </v>
   <v>       0.00073242 </v>
   <v>       0.00073242 </v>
   <v>       0.00073242 </v>
   <v>       0.00073242 </v>
   <v>       0.00073242 </v>
   <v>       0.00073242 </v>
   <v>       0.00073242 </v>
   <v>       0.00073242 </v>
   <v>       0.00073242 </v>
   <v>       0.00073242 </v>
   <v>       0.00036621 </v>
   <v>       0.00018311 </v>
   <v>       0.00073242 </v>
   <v>       0.00146484 </v>
   <v>       0.00146484 </v>
   <v>       0.00146484 </v>
   <v>       0.00146484 </v>
   <v>       0.00146484 </v>
   <v>       0.00146484 </v>
   <v>       0.00146484 </v>
   <v>       0.00146484 </v>
   <v>       0.00146484 </v>
   <v>       0.00146484 </v>
   <v>       0.00146484 </v>
   <v>       0.00073242 </v>
   <v>       0.00073242 </v>
   <v>       0.00146484 </v>
   <v>       0.00146484 </v>
   <v>       0.00146484 </v>
   <v>       0.00146484 </v>
   <v>       0.00146484 </v>
   <v>       0.00146484 </v>
   <v>       0.00146484 </v>
   <v>       0.00146484 </v>
   <v>       0.00146484 </v>
   <v>       0.00073242 </v>
   <v>       0.00073242 </v>
   <v>       0.00073242 </v>
   <v>       0.00073242 </v>
   <v>       0.00146484 </v>
   <v>       0.00146484 </v>
   <v>       0.00146484 </v>
   <v>       0.00146484 </v>
   <v>       0.00146484 </v>
   <v>       0.00146484 </v>
   <v>       0.00146484 </v>
   <v>       0.00146484 </v>
   <v>       0.00073242 </v>
   <v>       0.00146484 </v>
   <v>       0.00073242 </v>
   <v>       0.00146484 </v>
   <v>       0.00146484 </v>
   <v>       0.00146484 </v>
   <v>       0.00146484 </v>
   <v>       0.00146484 </v>
   <v>       0.00146484 </v>
   <v>       0.00073242 </v>
   <v>       0.00073242 </v>
   <v>       0.00146484 </v>
   <v>       0.00073242 </v>
   <v>       0.00073242 </v>
   <v>       0.00146484 </v>
   <v>       0.00146484 </v>
   <v>       0.00146484 </v>
   <v>       0.00146484 </v>
   <v>       0.00146484 </v>
   <v>       0.00073242 </v>
   <v>       0.00146484 </v>
   <v>       0.00146484 </v>
   <v>       0.00073242 </v>
   <v>       0.00146484 </v>
   <v>       0.00146484 </v>
   <v>       0.00146484 </v>
   <v>       0.00073242 </v>
   <v>       0.00073242 </v>
   <v>       0.00146484 </v>
   <v>       0.00146484 </v>
   <v>       0.00073242 </v>
   <v>       0.00073242 </v>
   <v>       0.00146484 </v>
   <v>       0.00146484 </v>
   <v>       0.00073242 </v>
   <v>       0.00146484 </v>
   <v>       0.00146484 </v>
   <v>       0.00146484 </v>
   <v>       0.00073242 </v>
   <v>       0.00073242 </v>
   <v>       0.00073242 </v>
   <v>       0.00146484 </v>
   <v>       0.00146484 </v>
   <v>       0.00146484 </v>
   <v>       0.00073242 </v>
   <v>       0.00073242 </v>
   <v>       0.00146484 </v>
   <v>       0.00146484 </v>
   <v>       0.00146484 </v>
   <v>       0.00146484 </v>
   <v>       0.00073242 </v>
   <v>       0.00146484 </v>
   <v>       0.00146484 </v>
   <v>       0.00146484 </v>
   <v>       0.00146484 </v>
   <v>       0.00073242 </v>
   <v>       0.00073242 </v>
   <v>       0.00146484 </v>
   <v>       0.00146484 </v>
   <v>       0.00146484 </v>
   <v>       0.00146484 </v>
   <v>       0.00146484 </v>
   <v>       0.00073242 </v>
   <v>       0.00146484 </v>
   <v>       0.00146484 </v>
   <v>       0.00146484 </v>
   <v>       0.00146484 </v>
   <v>       0.00146484 </v>
   <v>       0.00073242 </v>
   <v>       0.00073242 </v>
   <v>       0.00146484 </v>
   <v>       0.00146484 </v>
   <v>       0.00146484 </v>
   <v>       0.00146484 </v>
   <v>       0.00146484 </v>
   <v>       0.00146484 </v>
   <v>       0.00073242 </v>
   <v>       0.00146484 </v>
   <v>       0.00146484 </v>
   <v>       0.00146484 </v>
   <v>       0.00146484 </v>
   <v>       0.00146484 </v>
   <v>       0.00146484 </v>
   <v>       0.00073242 </v>
   <v>       0.00073242 </v>
   <v>       0.00146484 </v>
   <v>       0.00146484 </v>
   <v>       0.00146484 </v>
   <v>       0.00146484 </v>
   <v>       0.00146484 </v>
   <v>       0.00146484 </v>
   <v>       0.00073242 </v>
   <v>       0.00146484 </v>
   <v>       0.00146484 </v>
   <v>       0.00146484 </v>
   <v>       0.00146484 </v>
   <v>       0.00073242 </v>
   <v>       0.00073242 </v>
   <v>       0.00146484 </v>
   <v>       0.00146484 </v>
   <v>       0.00146484 </v>
   <v>       0.00073242 </v>
   <v>       0.00146484 </v>
   <v>       0.00073242 </v>
   <v>       0.00073242 </v>
   <v>       0.00024414 </v>
   <v>       0.00073242 </v>
   <v>       0.00073242 </v>
   <v>       0.00073242 </v>
   <v>       0.00073242 </v>
   <v>       0.00073242 </v>
   <v>       0.00073242 </v>
   <v>       0.00073242 </v>
   <v>       0.00073242 </v>
   <v>       0.00073242 </v>
   <v>       0.00073242 </v>
   <v>       0.00036621 </v>
   <v>       0.00018311 </v>
   <v>       0.00073242 </v>
   <v>       0.00146484 </v>
   <v>       0.00146484 </v>
   <v>       0.00146484 </v>
   <v>       0.00146484 </v>
   <v>       0.00146484 </v>
   <v>       0.00146484 </v>
   <v>       0.00146484 </v>
   <v>       0.00146484 </v>
   <v>       0.00146484 </v>
   <v>       0.00073242 </v>
   <v>       0.00073242 </v>
   <v>       0.00146484 </v>
   <v>       0.00146484 </v>
   <v>       0.00146484 </v>
   <v>       0.00146484 </v>
   <v>       0.00146484 </v>
   <v>       0.00146484 </v>
   <v>       0.00146484 </v>
   <v>       0.00073242 </v>
   <v>       0.00073242 </v>
   <v>       0.00073242 </v>
   <v>       0.00073242 </v>
   <v>       0.00146484 </v>
   <v>       0.00146484 </v>
   <v>       0.00146484 </v>
   <v>       0.00146484 </v>
   <v>       0.00146484 </v>
   <v>       0.00146484 </v>
   <v>       0.00073242 </v>
   <v>       0.00146484 </v>
   <v>       0.00073242 </v>
   <v>       0.00146484 </v>
   <v>       0.00146484 </v>
   <v>       0.00146484 </v>
   <v>       0.00146484 </v>
   <v>       0.00073242 </v>
   <v>       0.00073242 </v>
   <v>       0.00146484 </v>
   <v>       0.00073242 </v>
   <v>       0.00073242 </v>
   <v>       0.00146484 </v>
   <v>       0.00146484 </v>
   <v>       0.00146484 </v>
   <v>       0.00073242 </v>
   <v>       0.00146484 </v>
   <v>       0.00146484 </v>
   <v>       0.00073242 </v>
   <v>       0.00146484 </v>
   <v>       0.00073242 </v>
   <v>       0.00073242 </v>
   <v>       0.00146484 </v>
   <v>       0.00146484 </v>
   <v>       0.00073242 </v>
   <v>       0.00073242 </v>
   <v>       0.00073242 </v>
   <v>       0.00146484 </v>
   <v>       0.00146484 </v>
   <v>       0.00146484 </v>
   <v>       0.00073242 </v>
   <v>       0.00146484 </v>
   <v>       0.00146484 </v>
   <v>       0.00146484 </v>
   <v>       0.00073242 </v>
   <v>       0.00073242 </v>
   <v>       0.00146484 </v>
   <v>       0.00146484 </v>
   <v>       0.00146484 </v>
   <v>       0.00146484 </v>
   <v>       0.00073242 </v>
   <v>       0.00146484 </v>
   <v>       0.00146484 </v>
   <v>       0.00146484 </v>
   <v>       0.00146484 </v>
   <v>       0.00073242 </v>
   <v>       0.00073242 </v>
   <v>       0.00146484 </v>
   <v>       0.00146484 </v>
   <v>       0.00146484 </v>
   <v>       0.00146484 </v>
   <v>       0.00146484 </v>
   <v>       0.00073242 </v>
   <v>       0.00146484 </v>
   <v>       0.00146484 </v>
   <v>       0.00146484 </v>
   <v>       0.00146484 </v>
   <v>       0.00146484 </v>
   <v>       0.00073242 </v>
   <v>       0.00073242 </v>
   <v>       0.00146484 </v>
   <v>       0.00146484 </v>
   <v>       0.00146484 </v>
   <v>       0.00146484 </v>
   <v>       0.00146484 </v>
   <v>       0.00146484 </v>
   <v>       0.00073242 </v>
   <v>       0.00146484 </v>
   <v>       0.00146484 </v>
   <v>       0.00146484 </v>
   <v>       0.00146484 </v>
   <v>       0.00146484 </v>
   <v>       0.00073242 </v>
   <v>       0.00073242 </v>
   <v>       0.00146484 </v>
   <v>       0.00146484 </v>
   <v>       0.00146484 </v>
   <v>       0.00146484 </v>
   <v>       0.00073242 </v>
   <v>       0.00146484 </v>
   <v>       0.00146484 </v>
   <v>       0.00073242 </v>
   <v>       0.00073242 </v>
   <v>       0.00146484 </v>
   <v>       0.00024414 </v>
   <v>       0.00024414 </v>
   <v>       0.00073242 </v>
   <v>       0.00073242 </v>
   <v>       0.00073242 </v>
   <v>       0.00073242 </v>
   <v>       0.00073242 </v>
   <v>       0.00073242 </v>
   <v>       0.00073242 </v>
   <v>       0.00073242 </v>
   <v>       0.00036621 </v>
   <v>       0.00018311 </v>
   <v>       0.00073242 </v>
   <v>       0.00146484 </v>
   <v>       0.00146484 </v>
   <v>       0.00146484 </v>
   <v>       0.00146484 </v>
   <v>       0.00146484 </v>
   <v>       0.00146484 </v>
   <v>       0.00146484 </v>
   <v>       0.00073242 </v>
   <v>       0.00073242 </v>
   <v>       0.00146484 </v>
   <v>       0.00146484 </v>
   <v>       0.00146484 </v>
   <v>       0.00146484 </v>
   <v>       0.00146484 </v>
   <v>       0.00073242 </v>
   <v>       0.00073242 </v>
   <v>       0.00073242 </v>
   <v>       0.00073242 </v>
   <v>       0.00146484 </v>
   <v>       0.00146484 </v>
   <v>       0.00146484 </v>
   <v>       0.00146484 </v>
   <v>       0.00073242 </v>
   <v>       0.00146484 </v>
   <v>       0.00073242 </v>
   <v>       0.00146484 </v>
   <v>       0.00146484 </v>
   <v>       0.00073242 </v>
   <v>       0.00073242 </v>
   <v>       0.00146484 </v>
   <v>       0.00073242 </v>
   <v>       0.00073242 </v>
   <v>       0.00146484 </v>
   <v>       0.00073242 </v>
   <v>       0.00146484 </v>
   <v>       0.00146484 </v>
   <v>       0.00024414 </v>
   <v>       0.00073242 </v>
   <v>       0.00146484 </v>
   <v>       0.00146484 </v>
   <v>       0.00073242 </v>
   <v>       0.00073242 </v>
   <v>       0.00146484 </v>
   <v>       0.00146484 </v>
   <v>       0.00146484 </v>
   <v>       0.00073242 </v>
   <v>       0.00146484 </v>
   <v>       0.00146484 </v>
   <v>       0.00146484 </v>
   <v>       0.00073242 </v>
   <v>       0.00073242 </v>
   <v>       0.00146484 </v>
   <v>       0.00146484 </v>
   <v>       0.00146484 </v>
   <v>       0.00146484 </v>
   <v>       0.00073242 </v>
   <v>       0.00146484 </v>
   <v>       0.00146484 </v>
   <v>       0.00146484 </v>
   <v>       0.00146484 </v>
   <v>       0.00073242 </v>
   <v>       0.00073242 </v>
   <v>       0.00146484 </v>
   <v>       0.00146484 </v>
   <v>       0.00146484 </v>
   <v>       0.00146484 </v>
   <v>       0.00146484 </v>
   <v>       0.00073242 </v>
   <v>       0.00146484 </v>
   <v>       0.00146484 </v>
   <v>       0.00146484 </v>
   <v>       0.00146484 </v>
   <v>       0.00146484 </v>
   <v>       0.00073242 </v>
   <v>       0.00073242 </v>
   <v>       0.00146484 </v>
   <v>       0.00146484 </v>
   <v>       0.00146484 </v>
   <v>       0.00146484 </v>
   <v>       0.00146484 </v>
   <v>       0.00073242 </v>
   <v>       0.00146484 </v>
   <v>       0.00146484 </v>
   <v>       0.00146484 </v>
   <v>       0.00073242 </v>
   <v>       0.00073242 </v>
   <v>       0.00146484 </v>
   <v>       0.00146484 </v>
   <v>       0.00073242 </v>
   <v>       0.00073242 </v>
   <v>       0.00024414 </v>
   <v>       0.00073242 </v>
   <v>       0.00073242 </v>
   <v>       0.00073242 </v>
   <v>       0.00073242 </v>
   <v>       0.00073242 </v>
   <v>       0.00073242 </v>
   <v>       0.00036621 </v>
   <v>       0.00018311 </v>
   <v>       0.00073242 </v>
   <v>       0.00146484 </v>
   <v>       0.00146484 </v>
   <v>       0.00146484 </v>
   <v>       0.00146484 </v>
   <v>       0.00146484 </v>
   <v>       0.00073242 </v>
   <v>       0.00073242 </v>
   <v>       0.00146484 </v>
   <v>       0.00146484 </v>
   <v>       0.00146484 </v>
   <v>       0.00073242 </v>
   <v>       0.00073242 </v>
   <v>       0.00073242 </v>
   <v>       0.00073242 </v>
   <v>       0.00146484 </v>
   <v>       0.00146484 </v>
   <v>       0.00073242 </v>
   <v>       0.00146484 </v>
   <v>       0.00073242 </v>
   <v>       0.00073242 </v>
   <v>       0.00073242 </v>
   <v>       0.00146484 </v>
   <v>       0.00073242 </v>
   <v>       0.00073242 </v>
   <v>       0.00146484 </v>
   <v>       0.00146484 </v>
   <v>       0.00073242 </v>
   <v>       0.00146484 </v>
   <v>       0.00146484 </v>
   <v>       0.00073242 </v>
   <v>       0.00073242 </v>
   <v>       0.00146484 </v>
   <v>       0.00146484 </v>
   <v>       0.00146484 </v>
   <v>       0.00073242 </v>
   <v>       0.00146484 </v>
   <v>       0.00146484 </v>
   <v>       0.00146484 </v>
   <v>       0.00073242 </v>
   <v>       0.00073242 </v>
   <v>       0.00146484 </v>
   <v>       0.00146484 </v>
   <v>       0.00146484 </v>
   <v>       0.00146484 </v>
   <v>       0.00073242 </v>
   <v>       0.00146484 </v>
   <v>       0.00146484 </v>
   <v>       0.00146484 </v>
   <v>       0.00146484 </v>
   <v>       0.00073242 </v>
   <v>       0.00073242 </v>
   <v>       0.00146484 </v>
   <v>       0.00146484 </v>
   <v>       0.00146484 </v>
   <v>       0.00146484 </v>
   <v>       0.00146484 </v>
   <v>       0.00073242 </v>
   <v>       0.00146484 </v>
   <v>       0.00146484 </v>
   <v>       0.00146484 </v>
   <v>       0.00146484 </v>
   <v>       0.00073242 </v>
   <v>       0.00073242 </v>
   <v>       0.00146484 </v>
   <v>       0.00146484 </v>
   <v>       0.00146484 </v>
   <v>       0.00073242 </v>
   <v>       0.00146484 </v>
   <v>       0.00073242 </v>
   <v>       0.00073242 </v>
   <v>       0.00024414 </v>
   <v>       0.00073242 </v>
   <v>       0.00073242 </v>
   <v>       0.00073242 </v>
   <v>       0.00073242 </v>
   <v>       0.00036621 </v>
   <v>       0.00018311 </v>
   <v>       0.00073242 </v>
   <v>       0.00146484 </v>
   <v>       0.00146484 </v>
   <v>       0.00146484 </v>
   <v>       0.00073242 </v>
   <v>       0.00073242 </v>
   <v>       0.00146484 </v>
   <v>       0.00073242 </v>
   <v>       0.00073242 </v>
   <v>       0.00073242 </v>
   <v>       0.00073242 </v>
   <v>       0.00073242 </v>
   <v>       0.00146484 </v>
   <v>       0.00073242 </v>
   <v>       0.00146484 </v>
   <v>       0.00073242 </v>
   <v>       0.00073242 </v>
   <v>       0.00146484 </v>
   <v>       0.00146484 </v>
   <v>       0.00073242 </v>
   <v>       0.00146484 </v>
   <v>       0.00146484 </v>
   <v>       0.00073242 </v>
   <v>       0.00073242 </v>
   <v>       0.00146484 </v>
   <v>       0.00146484 </v>
   <v>       0.00146484 </v>
   <v>       0.00073242 </v>
   <v>       0.00146484 </v>
   <v>       0.00146484 </v>
   <v>       0.00146484 </v>
   <v>       0.00073242 </v>
   <v>       0.00073242 </v>
   <v>       0.00146484 </v>
   <v>       0.00146484 </v>
   <v>       0.00146484 </v>
   <v>       0.00146484 </v>
   <v>       0.00073242 </v>
   <v>       0.00146484 </v>
   <v>       0.00146484 </v>
   <v>       0.00146484 </v>
   <v>       0.00146484 </v>
   <v>       0.00073242 </v>
   <v>       0.00073242 </v>
   <v>       0.00146484 </v>
   <v>       0.00146484 </v>
   <v>       0.00146484 </v>
   <v>       0.00146484 </v>
   <v>       0.00073242 </v>
   <v>       0.00146484 </v>
   <v>       0.00146484 </v>
   <v>       0.00073242 </v>
   <v>       0.00073242 </v>
   <v>       0.00146484 </v>
   <v>       0.00024414 </v>
   <v>       0.00024414 </v>
   <v>       0.00073242 </v>
   <v>       0.00073242 </v>
   <v>       0.00036621 </v>
   <v>       0.00018311 </v>
   <v>       0.00073242 </v>
   <v>       0.00146484 </v>
   <v>       0.00073242 </v>
   <v>       0.00024414 </v>
   <v>       0.00073242 </v>
   <v>       0.00073242 </v>
   <v>       0.00073242 </v>
   <v>       0.00146484 </v>
   <v>       0.00073242 </v>
   <v>       0.00146484 </v>
   <v>       0.00073242 </v>
   <v>       0.00073242 </v>
   <v>       0.00146484 </v>
   <v>       0.00146484 </v>
   <v>       0.00073242 </v>
   <v>       0.00146484 </v>
   <v>       0.00146484 </v>
   <v>       0.00073242 </v>
   <v>       0.00073242 </v>
   <v>       0.00146484 </v>
   <v>       0.00146484 </v>
   <v>       0.00146484 </v>
   <v>       0.00073242 </v>
   <v>       0.00146484 </v>
   <v>       0.00146484 </v>
   <v>       0.00146484 </v>
   <v>       0.00073242 </v>
   <v>       0.00073242 </v>
   <v>       0.00146484 </v>
   <v>       0.00146484 </v>
   <v>       0.00146484 </v>
   <v>       0.00146484 </v>
   <v>       0.00073242 </v>
   <v>       0.00146484 </v>
   <v>       0.00146484 </v>
   <v>       0.00146484 </v>
   <v>       0.00073242 </v>
   <v>       0.00073242 </v>
   <v>       0.00146484 </v>
   <v>       0.00146484 </v>
   <v>       0.00073242 </v>
   <v>       0.00073242 </v>
   <v>       0.00024414 </v>
   <v>       0.00036621 </v>
   <v>       0.00018311 </v>
   <v>       0.00073242 </v>
   <v>       0.00073242 </v>
   <v>       0.00073242 </v>
   <v>       0.00073242 </v>
   <v>       0.00146484 </v>
[...]
       <r>  53.6551  0.0000</r>
       <r>  55.1824  0.0000</r>
       <r>  55.7377  0.0000</r>
       <r>  56.3599  0.0000</r>
       <r>  57.9721  0.0000</r>
       <r>  58.6431  0.0000</r>
       <r>  59.1351  0.0000</r>
       <r>  59.5566  0.0000</r>
       <r>  59.6837  0.0000</r>
      </set>
      <set comment="kpoint 874">
       <r> -39.1406  1.0000</r>
       <r> -39.1384  1.0000</r>
       <r> -39.1374  1.0000</r>
       <r>   4.8669 -0.0000</r>
       <r>   6.8938  0.0000</r>
       <r>   7.9286  0.0000</r>
       <r>   8.7426  0.0000</r>
       <r>  10.2428  0.0000</r>
       <r>  12.7512  0.0000</r>
       <r>  24.0528  0.0000</r>
       <r>  25.4002  0.0000</r>
       <r>  26.4809  0.0000</r>
       <r>  29.7085  0.0000</r>
       <r>  31.9440  0.0000</r>
       <r>  32.9081  0.0000</r>
       <r>  34.2774  0.0000</r>
       <r>  34.9147  0.0000</r>
       <r>  41.8862  0.0000</r>
       <r>  42.3019  0.0000</r>
       <r>  42.3516  0.0000</r>
       <r>  44.7051  0.0000</r>
       <r>  44.7083  0.0000</r>
       <r>  48.0046  0.0000</r>
       <r>  48.4278  0.0000</r>
       <r>  49.2650  0.0000</r>
       <r>  50.3048  0.0000</r>
       <r>  51.5190  0.0000</r>
       <r>  52.2829  0.0000</r>
       <r>  52.8805  0.0000</r>
       <r>  53.6515  0.0000</r>
       <r>  54.9356  0.0000</r>
       <r>  55.1354  0.0000</r>
       <r>  57.0164  0.0000</r>
       <r>  57.7504  0.0000</r>
       <r>  58.1035  0.0000</r>
       <r>  58.9524  0.0000</r>
       <r>  59.1999  0.0000</r>
       <r>  59.8402  0.0000</r>
      </set>
      <set comment="kpoint 875">
       <r> -39.1402  1.0000</r>
       <r> -39.1387  1.0000</r>
       <r> -39.1378  1.0000</r>
       <r>   4.8510 -0.0000</r>
       <r>   7.3084  0.0000</r>
       <r>   7.7240  0.0000</r>
       <r>   8.6877  0.0000</r>
       <r>  10.0263  0.0000</r>
       <r>  12.7065  0.0000</r>
       <r>  24.3201  0.0000</r>
       <r>  25.7511  0.0000</r>
       <r>  26.0488  0.0000</r>
       <r>  29.5373  0.0000</r>
       <r>  32.1279  0.0000</r>
       <r>  33.4584  0.0000</r>
       <r>  33.5979  0.0000</r>
       <r>  34.7837  0.0000</r>
       <r>  41.9102  0.0000</r>
       <r>  42.4180  0.0000</r>
       <r>  42.4441  0.0000</r>
       <r>  44.6420  0.0000</r>
       <r>  44.7789  0.0000</r>
       <r>  48.3349  0.0000</r>
       <r>  48.6479  0.0000</r>
       <r>  49.6990  0.0000</r>
       <r>  49.9242  0.0000</r>
       <r>  51.8471  0.0000</r>
       <r>  52.2357  0.0000</r>
       <r>  53.2639  0.0000</r>
       <r>  53.3625  0.0000</r>
       <r>  54.5573  0.0000</r>
       <r>  55.7358  0.0000</r>
       <r>  56.0614  0.0000</r>
       <r>  57.7877  0.0000</r>
       <r>  57.8459  0.0000</r>
       <r>  59.1315  0.0000</r>
       <r>  59.2234  0.0000</r>
       <r>  59.3030  0.0000</r>
      </set>
      <set comment="kpoint 876">
       <r> -39.1411  1.0000</r>
       <r> -39.1387  1.0000</r>
       <r> -39.1373  1.0000</r>
       <r>   5.4313 -0.0000</r>
       <r>   6.2785 -0.0000</r>
       <r>   7.8890  0.0000</r>
       <r>   8.8264  0.0000</r>
       <r>  10.3503  0.0000</r>
       <r>  12.4076  0.0000</r>
       <r>  24.0425  0.0000</r>
       <r>  25.4630  0.0000</r>
       <r>  27.1278  0.0000</r>
       <r>  30.4434  0.0000</r>
       <r>  31.2026  0.0000</r>
       <r>  32.1069  0.0000</r>
       <r>  34.2445  0.0000</r>
       <r>  34.9043  0.0000</r>
       <r>  42.0375  0.0000</r>
       <r>  42.2763  0.0000</r>
       <r>  42.4457  0.0000</r>
       <r>  45.3864  0.0000</r>
       <r>  45.5841  0.0000</r>
       <r>  47.3200  0.0000</r>
       <r>  48.3341  0.0000</r>
       <r>  50.1257  0.0000</r>
       <r>  50.8298  0.0000</r>
       <r>  51.1289  0.0000</r>
       <r>  51.6527  0.0000</r>
       <r>  52.7056  0.0000</r>
       <r>  53.6785  0.0000</r>
       <r>  55.0496  0.0000</r>
       <r>  55.1394  0.0000</r>
       <r>  56.8924  0.0000</r>
       <r>  57.7458  0.0000</r>
       <r>  58.5454  0.0000</r>
       <r>  59.0203  0.0000</r>
       <r>  59.0579  0.0000</r>
       <r>  59.4249  0.0000</r>
      </set>
      <set comment="kpoint 877">
       <r> -39.1407  1.0000</r>
       <r> -39.1392  1.0000</r>
       <r> -39.1377  1.0000</r>
       <r>   5.4309 -0.0000</r>
       <r>   6.7736  0.0000</r>
       <r>   7.5834  0.0000</r>
       <r>   8.9111  0.0000</r>
       <r>   9.9695  0.0000</r>
       <r>  12.2710  0.0000</r>
       <r>  24.3684  0.0000</r>
       <r>  25.9710  0.0000</r>
       <r>  26.7392  0.0000</r>
       <r>  30.1443  0.0000</r>
       <r>  31.3728  0.0000</r>
       <r>  32.6132  0.0000</r>
       <r>  33.4467  0.0000</r>
       <r>  34.7394  0.0000</r>
       <r>  42.0154  0.0000</r>
       <r>  42.5179  0.0000</r>
       <r>  42.6359  0.0000</r>
       <r>  45.5087  0.0000</r>
       <r>  45.7193  0.0000</r>
       <r>  47.8296  0.0000</r>
       <r>  49.2588  0.0000</r>
       <r>  49.9291  0.0000</r>
       <r>  50.2304  0.0000</r>
       <r>  51.4573  0.0000</r>
       <r>  52.4030  0.0000</r>
       <r>  53.3989  0.0000</r>
       <r>  53.4525  0.0000</r>
       <r>  54.1278  0.0000</r>
       <r>  55.2084  0.0000</r>
       <r>  56.6016  0.0000</r>
       <r>  57.1229  0.0000</r>
       <r>  57.9177  0.0000</r>
       <r>  58.9019  0.0000</r>
       <r>  59.0960  0.0000</r>
       <r>  59.3117  0.0000</r>
      </set>
      <set comment="kpoint 878">
       <r> -39.1408  1.0000</r>
       <r> -39.1394  1.0000</r>
       <r> -39.1377  1.0000</r>
       <r>   5.8640 -0.0000</r>
       <r>   6.3339 -0.0000</r>
       <r>   7.5515  0.0000</r>
       <r>   8.9965  0.0000</r>
       <r>   9.9689  0.0000</r>
       <r>  12.1031  0.0000</r>
       <r>  24.3726  0.0000</r>
       <r>  26.0212  0.0000</r>
       <r>  27.0969  0.0000</r>
       <r>  30.2820  0.0000</r>
       <r>  31.4040  0.0000</r>
       <r>  31.9897  0.0000</r>
       <r>  33.4202  0.0000</r>
       <r>  34.7273  0.0000</r>
       <r>  42.0394  0.0000</r>
       <r>  42.5729  0.0000</r>
       <r>  42.6885  0.0000</r>
       <r>  45.9251  0.0000</r>
       <r>  46.1959  0.0000</r>
       <r>  47.4651  0.0000</r>
       <r>  49.0567  0.0000</r>
       <r>  50.2767  0.0000</r>
       <r>  50.7128  0.0000</r>
       <r>  51.6131  0.0000</r>
       <r>  51.6830  0.0000</r>
       <r>  53.1731  0.0000</r>
       <r>  53.6387  0.0000</r>
       <r>  54.4730  0.0000</r>
       <r>  54.9839  0.0000</r>
       <r>  56.5422  0.0000</r>
       <r>  57.4884  0.0000</r>
       <r>  57.5611  0.0000</r>
       <r>  58.8761  0.0000</r>
       <r>  58.9231  0.0000</r>
       <r>  59.1597  0.0000</r>
      </set>
      <set comment="kpoint 879">
       <r> -39.1405  1.0000</r>
       <r> -39.1399  1.0000</r>
       <r> -39.1377  1.0000</r>
       <r>   5.9901 -0.0000</r>
       <r>   6.5230  0.0000</r>
       <r>   7.2306  0.0000</r>
       <r>   9.2626  0.0000</r>
       <r>   9.6893  0.0000</r>
       <r>  12.0004  0.0000</r>
       <r>  24.4416  0.0000</r>
       <r>  26.5280  0.0000</r>
       <r>  26.8440  0.0000</r>
       <r>  30.0409  0.0000</r>
       <r>  31.6350  0.0000</r>
       <r>  32.5179  0.0000</r>
       <r>  32.5310  0.0000</r>
       <r>  34.6975  0.0000</r>
       <r>  42.0316  0.0000</r>
       <r>  42.6993  0.0000</r>
       <r>  42.7588  0.0000</r>
       <r>  46.1492  0.0000</r>
       <r>  46.3292  0.0000</r>
       <r>  47.6171  0.0000</r>
       <r>  49.7175  0.0000</r>
       <r>  49.9169  0.0000</r>
       <r>  50.3218  0.0000</r>
       <r>  51.6539  0.0000</r>
       <r>  52.5370  0.0000</r>
       <r>  52.7423  0.0000</r>
       <r>  53.7717  0.0000</r>
       <r>  54.5129  0.0000</r>
       <r>  55.1064  0.0000</r>
       <r>  56.2861  0.0000</r>
       <r>  56.8249  0.0000</r>
       <r>  57.3414  0.0000</r>
       <r>  58.8067  0.0000</r>
       <r>  58.8123  0.0000</r>
       <r>  59.0627  0.0000</r>
      </set>
      <set comment="kpoint 880">
       <r> -39.1397  1.0000</r>
       <r> -39.1386  1.0000</r>
       <r> -39.1386  1.0000</r>
       <r>   4.8339 -0.0000</r>
       <r>   7.8890  0.0000</r>
       <r>   7.8890  0.0000</r>
       <r>   8.0636  0.0000</r>
       <r>   9.8420  0.0000</r>
       <r>  12.6646  0.0000</r>
       <r>  24.8568  0.0000</r>
       <r>  25.7321  0.0000</r>
       <r>  25.7321  0.0000</r>
       <r>  29.3552  0.0000</r>
       <r>  32.5679  0.0000</r>
       <r>  33.4511  0.0000</r>
       <r>  33.4511  0.0000</r>
       <r>  34.4157  0.0000</r>
       <r>  41.9144  0.0000</r>
       <r>  42.5224  0.0000</r>
       <r>  42.5726  0.0000</r>
       <r>  44.7140  0.0000</r>
       <r>  44.7140  0.0000</r>
       <r>  48.6353  0.0000</r>
       <r>  48.7321  0.0000</r>
       <r>  50.1628  0.0000</r>
       <r>  50.1628  0.0000</r>
       <r>  51.7671  0.0000</r>
       <r>  52.3811  0.0000</r>
       <r>  53.0835  0.0000</r>
       <r>  53.0835  0.0000</r>
       <r>  54.8304  0.0000</r>
       <r>  55.7570  0.0000</r>
       <r>  55.7570  0.0000</r>
       <r>  57.2661  0.0000</r>
       <r>  58.0672  0.0000</r>
       <r>  58.8291  0.0000</r>
       <r>  58.8291  0.0000</r>
       <r>  59.2051  0.0000</r>
      </set>
      <set comment="kpoint 881">
       <r> -39.1402  1.0000</r>
       <r> -39.1391  1.0000</r>
       <r> -39.1388  1.0000</r>
       <r>   5.4063 -0.0000</r>
       <r>   7.3519  0.0000</r>
       <r>   7.8098  0.0000</r>
       <r>   8.3277  0.0000</r>
       <r>   9.6446  0.0000</r>
       <r>  12.1554  0.0000</r>
       <r>  25.1047  0.0000</r>
       <r>  26.0249  0.0000</r>
       <r>  26.3849  0.0000</r>
       <r>  29.9573  0.0000</r>
       <r>  31.6623  0.0000</r>
       <r>  32.7682  0.0000</r>
       <r>  33.1711  0.0000</r>
       <r>  34.1751  0.0000</r>
       <r>  41.9778  0.0000</r>
       <r>  42.7445  0.0000</r>
       <r>  42.8697  0.0000</r>
       <r>  45.7068  0.0000</r>
       <r>  45.7337  0.0000</r>
       <r>  48.4344  0.0000</r>
       <r>  49.7182  0.0000</r>
       <r>  50.2294  0.0000</r>
       <r>  50.7331  0.0000</r>
       <r>  51.9888  0.0000</r>
       <r>  52.5840  0.0000</r>
       <r>  52.5953  0.0000</r>
       <r>  53.1041  0.0000</r>
       <r>  54.6187  0.0000</r>
       <r>  55.0352  0.0000</r>
       <r>  55.9711  0.0000</r>
       <r>  57.1044  0.0000</r>
       <r>  57.1850  0.0000</r>
       <r>  58.5883  0.0000</r>
       <r>  58.8145  0.0000</r>
       <r>  59.0019  0.0000</r>
      </set>
      <set comment="kpoint 882">
       <r> -39.1406  1.0000</r>
       <r> -39.1394  1.0000</r>
       <r> -39.1387  1.0000</r>
       <r>   5.9737 -0.0000</r>
       <r>   6.7552  0.0000</r>
       <r>   7.7702  0.0000</r>
       <r>   8.5312  0.0000</r>
       <r>   9.5651  0.0000</r>
       <r>  11.8568  0.0000</r>
       <r>  25.1245  0.0000</r>
       <r>  26.1542  0.0000</r>
       <r>  27.0120  0.0000</r>
       <r>  30.6087  0.0000</r>
       <r>  30.9477  0.0000</r>
       <r>  32.0372  0.0000</r>
       <r>  33.0946  0.0000</r>
       <r>  34.1004  0.0000</r>
       <r>  41.9920  0.0000</r>
       <r>  42.8940  0.0000</r>
       <r>  42.9935  0.0000</r>
       <r>  46.3906  0.0000</r>
       <r>  46.5947  0.0000</r>
       <r>  47.9291  0.0000</r>
       <r>  49.8534  0.0000</r>
       <r>  50.7221  0.0000</r>
       <r>  51.2842  0.0000</r>
       <r>  51.7544  0.0000</r>
       <r>  52.0279  0.0000</r>
       <r>  53.1253  0.0000</r>
       <r>  53.2875  0.0000</r>
       <r>  54.3615  0.0000</r>
       <r>  54.5489  0.0000</r>
       <r>  56.1735  0.0000</r>
       <r>  56.6994  0.0000</r>
       <r>  57.4224  0.0000</r>
       <r>  58.2006  0.0000</r>
       <r>  58.7702  0.0000</r>
       <r>  58.8760  0.0000</r>
      </set>
      <set comment="kpoint 883">
       <r> -39.1404  1.0000</r>
       <r> -39.1397  1.0000</r>
       <r> -39.1389  1.0000</r>
       <r>   5.9817 -0.0000</r>
       <r>   7.1395  0.0000</r>
       <r>   7.5678  0.0000</r>
       <r>   8.5154  0.0000</r>
       <r>   9.3500  0.0000</r>
       <r>  11.7758  0.0000</r>
       <r>  25.3753  0.0000</r>
       <r>  26.4705  0.0000</r>
       <r>  26.7326  0.0000</r>
       <r>  30.4331  0.0000</r>
       <r>  31.0819  0.0000</r>
       <r>  32.4854  0.0000</r>
       <r>  32.5005  0.0000</r>
       <r>  33.9174  0.0000</r>
       <r>  41.9778  0.0000</r>
       <r>  43.0063  0.0000</r>
       <r>  43.0981  0.0000</r>
       <r>  46.5612  0.0000</r>
       <r>  46.6544  0.0000</r>
       <r>  48.2106  0.0000</r>
       <r>  50.6035  0.0000</r>
       <r>  50.7176  0.0000</r>
       <r>  50.8011  0.0000</r>
       <r>  51.9666  0.0000</r>
       <r>  52.4126  0.0000</r>
       <r>  53.0385  0.0000</r>
       <r>  53.3081  0.0000</r>
       <r>  53.9370  0.0000</r>
       <r>  55.2131  0.0000</r>
       <r>  55.6166  0.0000</r>
       <r>  56.3296  0.0000</r>
       <r>  57.0027  0.0000</r>
       <r>  58.3426  0.0000</r>
       <r>  58.5031  0.0000</r>
       <r>  58.8330  0.0000</r>
      </set>
      <set comment="kpoint 884">
       <r> -39.1405  1.0000</r>
       <r> -39.1399  1.0000</r>
       <r> -39.1389  1.0000</r>
       <r>   6.4383 -0.0000</r>
       <r>   6.7563  0.0000</r>
       <r>   7.4838  0.0000</r>
       <r>   8.7156  0.0000</r>
       <r>   9.1768  0.0000</r>
       <r>  11.6377  0.0000</r>
       <r>  25.4115  0.0000</r>
       <r>  26.6116  0.0000</r>
       <r>  27.0003  0.0000</r>
       <r>  30.3725  0.0000</r>
       <r>  31.2846  0.0000</r>
       <r>  31.9349  0.0000</r>
       <r>  32.4334  0.0000</r>
       <r>  33.8600  0.0000</r>
       <r>  41.9764  0.0000</r>
       <r>  43.1130  0.0000</r>
       <r>  43.1562  0.0000</r>
       <r>  46.9651  0.0000</r>
       <r>  47.1335  0.0000</r>
       <r>  47.9453  0.0000</r>
       <r>  50.4596  0.0000</r>
       <r>  50.9136  0.0000</r>
       <r>  51.3013  0.0000</r>
       <r>  52.0300  0.0000</r>
       <r>  52.0904  0.0000</r>
       <r>  53.1854  0.0000</r>
       <r>  53.3508  0.0000</r>
       <r>  54.4851  0.0000</r>
       <r>  54.5288  0.0000</r>
       <r>  55.7608  0.0000</r>
       <r>  56.3367  0.0000</r>
       <r>  56.3879  0.0000</r>
       <r>  58.1877  0.0000</r>
       <r>  58.4160  0.0000</r>
       <r>  58.7352  0.0000</r>
      </set>
      <set comment="kpoint 885">
       <r> -39.1400  1.0000</r>
       <r> -39.1396  1.0000</r>
       <r> -39.1396  1.0000</r>
       <r>   5.9749 -0.0000</r>
       <r>   7.7307  0.0000</r>
       <r>   7.7307  0.0000</r>
       <r>   7.8807  0.0000</r>
       <r>   9.1892  0.0000</r>
       <r>  11.7022  0.0000</r>
       <r>  25.9517  0.0000</r>
       <r>  26.4513  0.0000</r>
       <r>  26.4513  0.0000</r>
       <r>  30.3966  0.0000</r>
       <r>  31.1366  0.0000</r>
       <r>  32.4902  0.0000</r>
       <r>  32.4902  0.0000</r>
       <r>  33.5450  0.0000</r>
       <r>  41.9624  0.0000</r>
       <r>  43.1131  0.0000</r>
       <r>  43.2144  0.0000</r>
       <r>  46.7070  0.0000</r>
       <r>  46.7070  0.0000</r>
       <r>  48.5301  0.0000</r>
       <r>  50.6274  0.0000</r>
       <r>  51.2922  0.0000</r>
       <r>  51.2922  0.0000</r>
       <r>  52.3121  0.0000</r>
       <r>  52.4252  0.0000</r>
       <r>  52.4252  0.0000</r>
       <r>  52.7435  0.0000</r>
       <r>  54.6464  0.0000</r>
       <r>  55.2101  0.0000</r>
       <r>  55.2101  0.0000</r>
       <r>  56.3776  0.0000</r>
       <r>  56.4513  0.0000</r>
       <r>  58.0180  0.0000</r>
       <r>  58.0180  0.0000</r>
       <r>  58.7645  0.0000</r>
      </set>
      <set comment="kpoint 886">
       <r> -39.1403  1.0000</r>
       <r> -39.1399  1.0000</r>
       <r> -39.1397  1.0000</r>
       <r>   6.5479  0.0000</r>
       <r>   7.2360  0.0000</r>
       <r>   7.6911  0.0000</r>
       <r>   8.1832  0.0000</r>
       <r>   8.8549  0.0000</r>
       <r>  11.4513  0.0000</r>
       <r>  26.1319  0.0000</r>
       <r>  26.6593  0.0000</r>
       <r>  26.9353  0.0000</r>
       <r>  30.5534  0.0000</r>
       <r>  30.9482  0.0000</r>
       <r>  31.9800  0.0000</r>
       <r>  32.2612  0.0000</r>
       <r>  33.2641  0.0000</r>
       <r>  41.9538  0.0000</r>
       <r>  43.3172  0.0000</r>
       <r>  43.3662  0.0000</r>
       <r>  47.4155  0.0000</r>
       <r>  47.5095  0.0000</r>
       <r>  48.3085  0.0000</r>
       <r>  51.0469  0.0000</r>
       <r>  51.5128  0.0000</r>
       <r>  51.7719  0.0000</r>
       <r>  52.0213  0.0000</r>
       <r>  52.1469  0.0000</r>
       <r>  52.8881  0.0000</r>
       <r>  53.6632  0.0000</r>
       <r>  54.2458  0.0000</r>
       <r>  54.5884  0.0000</r>
       <r>  55.5801  0.0000</r>
       <r>  55.5883  0.0000</r>
       <r>  56.3705  0.0000</r>
       <r>  57.1483  0.0000</r>
       <r>  57.5747  0.0000</r>
       <r>  58.6188  0.0000</r>
      </set>
      <set comment="kpoint 887">
       <r> -39.1402  1.0000</r>
       <r> -39.1402  1.0000</r>
       <r> -39.1397  1.0000</r>
       <r>   7.0550  0.0000</r>
       <r>   7.0550  0.0000</r>
       <r>   7.5360  0.0000</r>
       <r>   8.4294  0.0000</r>
       <r>   8.4294  0.0000</r>
       <r>  11.3377  0.0000</r>
       <r>  26.3151  0.0000</r>
       <r>  26.9421  0.0000</r>
       <r>  26.9421  0.0000</r>
       <r>  30.2718  0.0000</r>
       <r>  31.3273  0.0000</r>
       <r>  31.9012  0.0000</r>
       <r>  31.9012  0.0000</r>
       <r>  33.0410  0.0000</r>
       <r>  41.9468  0.0000</r>
       <r>  43.4383  0.0000</r>
       <r>  43.4383  0.0000</r>
       <r>  47.8699  0.0000</r>
       <r>  47.8699  0.0000</r>
       <r>  48.2308  0.0000</r>
       <r>  51.1561  0.0000</r>
       <r>  51.7959  0.0000</r>
       <r>  51.7959  0.0000</r>
       <r>  52.0959  0.0000</r>
       <r>  52.0959  0.0000</r>
       <r>  53.2081  0.0000</r>
       <r>  53.7692  0.0000</r>
       <r>  54.6799  0.0000</r>
       <r>  54.6799  0.0000</r>
       <r>  55.2696  0.0000</r>
       <r>  55.2696  0.0000</r>
       <r>  55.5816  0.0000</r>
       <r>  57.1566  0.0000</r>
       <r>  57.1566  0.0000</r>
       <r>  58.2160  0.0000</r>
      </set>
      <set comment="kpoint 888">
       <r> -39.1402  1.0000</r>
       <r> -39.1401  1.0000</r>
       <r> -39.1401  1.0000</r>
       <r>   7.1349  0.0000</r>
       <r>   7.6516  0.0000</r>
       <r>   7.6516  0.0000</r>
       <r>   7.7893  0.0000</r>
       <r>   8.2593  0.0000</r>
       <r>  11.2339  0.0000</r>
       <r>  26.8352  0.0000</r>
       <r>  26.9227  0.0000</r>
       <r>  26.9227  0.0000</r>
       <r>  30.0844  0.0000</r>
       <r>  31.4379  0.0000</r>
       <r>  31.8898  0.0000</r>
       <r>  31.8898  0.0000</r>
       <r>  32.5668  0.0000</r>
       <r>  41.9385  0.0000</r>
       <r>  43.5323  0.0000</r>
       <r>  43.5468  0.0000</r>
       <r>  48.1748  0.0000</r>
       <r>  48.1748  0.0000</r>
       <r>  48.4295  0.0000</r>
       <r>  51.4082  0.0000</r>
       <r>  51.5842  0.0000</r>
       <r>  51.5842  0.0000</r>
       <r>  52.7074  0.0000</r>
       <r>  52.7074  0.0000</r>
       <r>  52.8937  0.0000</r>
       <r>  54.4130  0.0000</r>
       <r>  54.5543  0.0000</r>
       <r>  54.7187  0.0000</r>
       <r>  54.7187  0.0000</r>
       <r>  55.2740  0.0000</r>
       <r>  55.9303  0.0000</r>
       <r>  56.3030  0.0000</r>
       <r>  56.3030  0.0000</r>
       <r>  57.4637  0.0000</r>
      </set>
     </set>
    </set>
   </array>
  </eigenvalues>
 </calculation>
 <structure name="finalpos" >
  <crystal>
   <varray name="basis" >
    <v>      -1.78559323       1.78559323       1.78559323 </v>
    <v>       1.78559323      -1.78559323       1.78559323 </v>
    <v>       1.78559323       1.78559323      -1.78559323 </v>
   </varray>
   <i name="volume">     22.77233614</i>
   <varray name="rec_basis" >
    <v>       0.00000000       0.28001898       0.28001898 </v>
    <v>       0.28001898       0.00000000       0.28001898 </v>
    <v>       0.28001898       0.28001898       0.00000000 </v>
   </varray>
  </crystal>
  <varray name="positions" >
   <v>      -0.00000000      -0.00000000       0.00000000 </v>
  </varray>
 </structure>
</modeling>
