 vasp.5.4.1 05Feb16 (build Mar 04 2017 03:35:09) complex                        
  
 executed on                LINUX date 2017.08.07  15:42:59
 running on    8 total cores
 distrk:  each k-point on    8 cores,    1 groups
 distr:  one band on NCORES_PER_BAND=   8 cores,    1 groups


--------------------------------------------------------------------------------------------------------


 INCAR:
 POTCAR:    PAW_PBE Al 04Jan2001                  

 ----------------------------------------------------------------------------- 
|                                                                             |
|           W    W    AA    RRRRR   N    N  II  N    N   GGGG   !!!           |
|           W    W   A  A   R    R  NN   N  II  NN   N  G    G  !!!           |
|           W    W  A    A  R    R  N N  N  II  N N  N  G       !!!           |
|           W WW W  AAAAAA  RRRRR   N  N N  II  N  N N  G  GGG   !            |
|           WW  WW  A    A  R   R   N   NN  II  N   NN  G    G                |
|           W    W  A    A  R    R  N    N  II  N    N   GGGG   !!!           |
|                                                                             |
|      For optimal performance we recommend to set                            |
|        NCORE= 4 - approx SQRT( number of cores)                             |
|      NCORE specifies how many cores store one orbital (NPAR=cpu/NCORE).     |
|      This setting can  greatly improve the performance of VASP for DFT.     |
|      The default, NPAR=number of cores might be grossly inefficient         |
|      on modern multi-core architectures or massively parallel machines.     |
|      Do your own testing !!!!                                               |
|      Unfortunately you need to use the default for GW and RPA calculations. |
|      (for HF NCORE is supported but not extensively tested yet)             |
|                                                                             |
 ----------------------------------------------------------------------------- 

 POTCAR:    PAW_PBE Al 04Jan2001                  
   VRHFIN =Al: s2p1                                                             
   LEXCH  = PE                                                                  
   EATOM  =    53.5387 eV,    3.9350 Ry                                         
                                                                                
   TITEL  = PAW_PBE Al 04Jan2001                                                
   LULTRA =        F    use ultrasoft PP ?                                      
   IUNSCR =        1    unscreen: 0-lin 1-nonlin 2-no                           
   RPACOR =    1.500    partial core radius                                     
   POMASS =   26.981; ZVAL   =    3.000    mass and valenz                      
   RCORE  =    1.900    outmost cutoff radius                                   
   RWIGS  =    2.650; RWIGS  =    1.402    wigner-seitz radius (au A)           
   ENMAX  =  240.300; ENMIN  =  180.225 eV                                      
   ICORE  =        2    local potential                                         
   LCOR   =        T    correct aug charges                                     
   LPAW   =        T    paw PP                                                  
   EAUG   =  291.052                                                            
   DEXC   =    0.000                                                            
   RMAX   =    1.939    core radius for proj-oper                               
   RAUG   =    1.300    factor for augmentation sphere                          
   RDEP   =    1.966    radius for radial grids                                 
   RDEPT  =    1.856    core radius for aug-charge                              
                                                                                
   Atomic configuration                                                         
    6 entries                                                                   
     n  l   j            E        occ.                                          
     1  0  0.50     -1511.1048   2.0000                                         
     2  0  0.50      -108.1629   2.0000                                         
     2  1  1.50       -69.6402   6.0000                                         
     3  0  0.50        -7.7528   2.0000                                         
     3  1  1.50        -2.7121   1.0000                                         
     3  2  2.50        -2.7212   0.0000                                         
   Description                                                                  
     l       E           TYP  RCUT    TYP  RCUT                                 
     0     -7.7528455     23  1.900                                             
     0     -3.3096929     23  1.900                                             
     1     -2.7120682     23  1.900                                             
     1     13.6058260     23  1.900                                             
     2     -2.7211652      7  1.900                                             
  local pseudopotential read in
  partial core-charges read in
  partial kinetic energy density read in
  atomic valenz-charges read in
  non local Contribution for L=           0  read in
    real space projection operators read in
  non local Contribution for L=           0  read in
    real space projection operators read in
  non local Contribution for L=           1  read in
    real space projection operators read in
  non local Contribution for L=           1  read in
    real space projection operators read in
    PAW grid and wavefunctions read in
 
   number of l-projection  operators is LMAX  =           4
   number of lm-projection operators is LMMAX =           8
 
  PAW_PBE Al 04Jan2001                  :
 energy of atom  1       EATOM=  -53.5387
 kinetic energy error for atom=    0.0011 (will be added to EATOM!!)
 
 
 POSCAR: Al                                      
  positions in direct lattice
  velocities in cartesian coordinates
 exchange correlation table for  LEXCH =        8
   RHO(1)=    0.500       N(1)  =     2000
   RHO(2)=  100.500       N(2)  =     4000
 


--------------------------------------------------------------------------------------------------------


 ion  position               nearest neighbor table
   1  0.000  0.000  0.000-   2 2.69   3 2.69   4 2.69   3 2.69   4 2.69   2 2.69   3 2.69   3 2.69
                             2 2.69   4 2.69   4 2.69   2 2.69
   2  0.500  0.500  0.000-   1 2.69   3 2.69   4 2.69   3 2.69   4 2.69   1 2.69   4 2.69   4 2.69
                             1 2.69   3 2.69   3 2.69   1 2.69
   3  0.000  0.500  0.500-   1 2.69   2 2.69   4 2.69   1 2.69   2 2.69   1 2.69   4 2.69   1 2.69
                             2 2.69   4 2.69   2 2.69   4 2.69
   4  0.500  0.000  0.500-   1 2.69   2 2.69   3 2.69   1 2.69   2 2.69   2 2.69   3 2.69   2 2.69
                             1 2.69   3 2.69   1 2.69   3 2.69
 
  LATTYP: Found a simple cubic cell.
 ALAT       =     3.8000000000
  
  Lattice vectors:
  
 A1 = (   3.8000000000,   0.0000000000,   0.0000000000)
 A2 = (   0.0000000000,   3.8000000000,   0.0000000000)
 A3 = (   0.0000000000,   0.0000000000,   3.8000000000)


Analysis of symmetry for initial positions (statically):
=====================================================================
 Subroutine PRICEL returns following result:
 
  LATTYP: Found a face centered cubic cell.
 ALAT       =     3.8000000000
  
  Lattice vectors:
  
 A1 = (   1.9000000000,   1.9000000000,   0.0000000000)
 A2 = (   1.9000000000,   0.0000000000,  -1.9000000000)
 A3 = (   0.0000000000,   1.9000000000,  -1.9000000000)
 
   4 primitive cells build up your supercell.
 

 Routine SETGRP: Setting up the symmetry group for a 
 simple cubic supercell.


 Subroutine GETGRP returns: Found 48 space group operations
 (whereof 48 operations were pure point group operations)
 out of a pool of 48 trial point group operations.


The static configuration has the point symmetry O_h .


Analysis of symmetry for dynamics (positions and initial velocities):
=====================================================================
 Subroutine PRICEL returns following result:
 
  LATTYP: Found a face centered cubic cell.
 ALAT       =     3.8000000000
  
  Lattice vectors:
  
 A1 = (   1.9000000000,   1.9000000000,   0.0000000000)
 A2 = (   1.9000000000,   0.0000000000,  -1.9000000000)
 A3 = (   0.0000000000,   1.9000000000,  -1.9000000000)
 
   4 primitive cells build up your supercell.
 

 Routine SETGRP: Setting up the symmetry group for a 
 simple cubic supercell.


 Subroutine GETGRP returns: Found 48 space group operations
 (whereof 48 operations were pure point group operations)
 out of a pool of 48 trial point group operations.


The dynamic configuration has the point symmetry O_h .


 Subroutine INISYM returns: Found 48 space group operations
 (whereof 48 operations are pure point group operations),
 and found     4 'primitive' translations

 
 
 KPOINTS: 24x24x24                                

Automatic generation of k-mesh.
Space group operators:
 irot       det(A)        alpha          n_x          n_y          n_z        tau_x        tau_y        tau_z
    1     1.000000     0.000001     1.000000     0.000000     0.000000     0.000000     0.000000     0.000000
    2    -1.000000     0.000001     1.000000     0.000000     0.000000     0.000000     0.000000     0.000000
    3     1.000000   120.000000    -0.577350    -0.577350    -0.577350     0.000000     0.000000     0.000000
    4    -1.000000   120.000000    -0.577350    -0.577350    -0.577350     0.000000     0.000000     0.000000
    5     1.000000   120.000000     0.577350     0.577350     0.577350     0.000000     0.000000     0.000000
    6    -1.000000   120.000000     0.577350     0.577350     0.577350     0.000000     0.000000     0.000000
    7     1.000000    90.000000     0.000000     0.000000    -1.000000     0.000000     0.000000     0.000000
    8    -1.000000    90.000000     0.000000     0.000000    -1.000000     0.000000     0.000000     0.000000
    9     1.000000   180.000000     0.000000     0.707107     0.707107     0.000000     0.000000     0.000000
   10    -1.000000   180.000000     0.000000     0.707107     0.707107     0.000000     0.000000     0.000000
   11     1.000000    90.000000     0.000000     1.000000     0.000000     0.000000     0.000000     0.000000
   12    -1.000000    90.000000     0.000000     1.000000     0.000000     0.000000     0.000000     0.000000
   13     1.000000   180.000000     0.000000     0.000000     1.000000     0.000000     0.000000     0.000000
   14    -1.000000   180.000000     0.000000     0.000000     1.000000     0.000000     0.000000     0.000000
   15     1.000000   120.000000    -0.577350     0.577350     0.577350     0.000000     0.000000     0.000000
   16    -1.000000   120.000000    -0.577350     0.577350     0.577350     0.000000     0.000000     0.000000
   17     1.000000   120.000000    -0.577350     0.577350    -0.577350     0.000000     0.000000     0.000000
   18    -1.000000   120.000000    -0.577350     0.577350    -0.577350     0.000000     0.000000     0.000000
   19     1.000000    90.000000     0.000000     0.000000     1.000000     0.000000     0.000000     0.000000
   20    -1.000000    90.000000     0.000000     0.000000     1.000000     0.000000     0.000000     0.000000
   21     1.000000    90.000000    -1.000000     0.000000     0.000000     0.000000     0.000000     0.000000
   22    -1.000000    90.000000    -1.000000     0.000000     0.000000     0.000000     0.000000     0.000000
   23     1.000000   180.000000     0.707107     0.000000     0.707107     0.000000     0.000000     0.000000
   24    -1.000000   180.000000     0.707107     0.000000     0.707107     0.000000     0.000000     0.000000
   25     1.000000   120.000000     0.577350    -0.577350     0.577350     0.000000     0.000000     0.000000
   26    -1.000000   120.000000     0.577350    -0.577350     0.577350     0.000000     0.000000     0.000000
   27     1.000000   120.000000    -0.577350    -0.577350     0.577350     0.000000     0.000000     0.000000
   28    -1.000000   120.000000    -0.577350    -0.577350     0.577350     0.000000     0.000000     0.000000
   29     1.000000   180.000000     1.000000     0.000000     0.000000     0.000000     0.000000     0.000000
   30    -1.000000   180.000000     1.000000     0.000000     0.000000     0.000000     0.000000     0.000000
   31     1.000000    90.000000     0.000000    -1.000000     0.000000     0.000000     0.000000     0.000000
   32    -1.000000    90.000000     0.000000    -1.000000     0.000000     0.000000     0.000000     0.000000
   33     1.000000   180.000000     0.707107     0.707107     0.000000     0.000000     0.000000     0.000000
   34    -1.000000   180.000000     0.707107     0.707107     0.000000     0.000000     0.000000     0.000000
   35     1.000000    90.000000     1.000000     0.000000     0.000000     0.000000     0.000000     0.000000
   36    -1.000000    90.000000     1.000000     0.000000     0.000000     0.000000     0.000000     0.000000
   37     1.000000   120.000000     0.577350    -0.577350    -0.577350     0.000000     0.000000     0.000000
   38    -1.000000   120.000000     0.577350    -0.577350    -0.577350     0.000000     0.000000     0.000000
   39     1.000000   180.000000     0.000000     1.000000     0.000000     0.000000     0.000000     0.000000
   40    -1.000000   180.000000     0.000000     1.000000     0.000000     0.000000     0.000000     0.000000
   41     1.000000   120.000000     0.577350     0.577350    -0.577350     0.000000     0.000000     0.000000
   42    -1.000000   120.000000     0.577350     0.577350    -0.577350     0.000000     0.000000     0.000000
   43     1.000000   180.000000     0.000000    -0.707107     0.707107     0.000000     0.000000     0.000000
   44    -1.000000   180.000000     0.000000    -0.707107     0.707107     0.000000     0.000000     0.000000
   45     1.000000   180.000000     0.707107    -0.707107     0.000000     0.000000     0.000000     0.000000
   46    -1.000000   180.000000     0.707107    -0.707107     0.000000     0.000000     0.000000     0.000000
   47     1.000000   180.000000     0.707107     0.000000    -0.707107     0.000000     0.000000     0.000000
   48    -1.000000   180.000000     0.707107     0.000000    -0.707107     0.000000     0.000000     0.000000
 
 Subroutine IBZKPT returns following result:
 ===========================================
 
 Found    364 irreducible k-points:
 
 Following reciprocal coordinates:
            Coordinates               Weight
  0.020833  0.020833  0.020833      8.000000
  0.062500  0.020833  0.020833     24.000000
  0.104167  0.020833  0.020833     24.000000
  0.145833  0.020833  0.020833     24.000000
  0.187500  0.020833  0.020833     24.000000
  0.229167  0.020833  0.020833     24.000000
  0.270833  0.020833  0.020833     24.000000
  0.312500  0.020833  0.020833     24.000000
  0.354167  0.020833  0.020833     24.000000
  0.395833  0.020833  0.020833     24.000000
  0.437500  0.020833  0.020833     24.000000
  0.479167  0.020833  0.020833     24.000000
  0.062500  0.062500  0.020833     24.000000
  0.104167  0.062500  0.020833     48.000000
  0.145833  0.062500  0.020833     48.000000
  0.187500  0.062500  0.020833     48.000000
  0.229167  0.062500  0.020833     48.000000
  0.270833  0.062500  0.020833     48.000000
  0.312500  0.062500  0.020833     48.000000
  0.354167  0.062500  0.020833     48.000000
  0.395833  0.062500  0.020833     48.000000
  0.437500  0.062500  0.020833     48.000000
  0.479167  0.062500  0.020833     48.000000
  0.104167  0.104167  0.020833     24.000000
  0.145833  0.104167  0.020833     48.000000
  0.187500  0.104167  0.020833     48.000000
  0.229167  0.104167  0.020833     48.000000
  0.270833  0.104167  0.020833     48.000000
  0.312500  0.104167  0.020833     48.000000
  0.354167  0.104167  0.020833     48.000000
  0.395833  0.104167  0.020833     48.000000
  0.437500  0.104167  0.020833     48.000000
  0.479167  0.104167  0.020833     48.000000
  0.145833  0.145833  0.020833     24.000000
  0.187500  0.145833  0.020833     48.000000
  0.229167  0.145833  0.020833     48.000000
  0.270833  0.145833  0.020833     48.000000
  0.312500  0.145833  0.020833     48.000000
  0.354167  0.145833  0.020833     48.000000
  0.395833  0.145833  0.020833     48.000000
  0.437500  0.145833  0.020833     48.000000
  0.479167  0.145833  0.020833     48.000000
  0.187500  0.187500  0.020833     24.000000
  0.229167  0.187500  0.020833     48.000000
  0.270833  0.187500  0.020833     48.000000
  0.312500  0.187500  0.020833     48.000000
  0.354167  0.187500  0.020833     48.000000
  0.395833  0.187500  0.020833     48.000000
  0.437500  0.187500  0.020833     48.000000
  0.479167  0.187500  0.020833     48.000000
  0.229167  0.229167  0.020833     24.000000
  0.270833  0.229167  0.020833     48.000000
  0.312500  0.229167  0.020833     48.000000
  0.354167  0.229167  0.020833     48.000000
  0.395833  0.229167  0.020833     48.000000
  0.437500  0.229167  0.020833     48.000000
  0.479167  0.229167  0.020833     48.000000
  0.270833  0.270833  0.020833     24.000000
  0.312500  0.270833  0.020833     48.000000
  0.354167  0.270833  0.020833     48.000000
  0.395833  0.270833  0.020833     48.000000
  0.437500  0.270833  0.020833     48.000000
  0.479167  0.270833  0.020833     48.000000
  0.312500  0.312500  0.020833     24.000000
  0.354167  0.312500  0.020833     48.000000
  0.395833  0.312500  0.020833     48.000000
  0.437500  0.312500  0.020833     48.000000
  0.479167  0.312500  0.020833     48.000000
  0.354167  0.354167  0.020833     24.000000
  0.395833  0.354167  0.020833     48.000000
  0.437500  0.354167  0.020833     48.000000
  0.479167  0.354167  0.020833     48.000000
  0.395833  0.395833  0.020833     24.000000
  0.437500  0.395833  0.020833     48.000000
  0.479167  0.395833  0.020833     48.000000
  0.437500  0.437500  0.020833     24.000000
  0.479167  0.437500  0.020833     48.000000
  0.479167  0.479167  0.020833     24.000000
  0.062500  0.062500  0.062500      8.000000
  0.104167  0.062500  0.062500     24.000000
  0.145833  0.062500  0.062500     24.000000
  0.187500  0.062500  0.062500     24.000000
  0.229167  0.062500  0.062500     24.000000
  0.270833  0.062500  0.062500     24.000000
  0.312500  0.062500  0.062500     24.000000
  0.354167  0.062500  0.062500     24.000000
  0.395833  0.062500  0.062500     24.000000
  0.437500  0.062500  0.062500     24.000000
  0.479167  0.062500  0.062500     24.000000
  0.104167  0.104167  0.062500     24.000000
  0.145833  0.104167  0.062500     48.000000
  0.187500  0.104167  0.062500     48.000000
  0.229167  0.104167  0.062500     48.000000
  0.270833  0.104167  0.062500     48.000000
  0.312500  0.104167  0.062500     48.000000
  0.354167  0.104167  0.062500     48.000000
  0.395833  0.104167  0.062500     48.000000
  0.437500  0.104167  0.062500     48.000000
  0.479167  0.104167  0.062500     48.000000
  0.145833  0.145833  0.062500     24.000000
  0.187500  0.145833  0.062500     48.000000
  0.229167  0.145833  0.062500     48.000000
  0.270833  0.145833  0.062500     48.000000
  0.312500  0.145833  0.062500     48.000000
  0.354167  0.145833  0.062500     48.000000
  0.395833  0.145833  0.062500     48.000000
  0.437500  0.145833  0.062500     48.000000
  0.479167  0.145833  0.062500     48.000000
  0.187500  0.187500  0.062500     24.000000
  0.229167  0.187500  0.062500     48.000000
  0.270833  0.187500  0.062500     48.000000
  0.312500  0.187500  0.062500     48.000000
  0.354167  0.187500  0.062500     48.000000
  0.395833  0.187500  0.062500     48.000000
  0.437500  0.187500  0.062500     48.000000
  0.479167  0.187500  0.062500     48.000000
  0.229167  0.229167  0.062500     24.000000
  0.270833  0.229167  0.062500     48.000000
  0.312500  0.229167  0.062500     48.000000
  0.354167  0.229167  0.062500     48.000000
  0.395833  0.229167  0.062500     48.000000
  0.437500  0.229167  0.062500     48.000000
  0.479167  0.229167  0.062500     48.000000
  0.270833  0.270833  0.062500     24.000000
  0.312500  0.270833  0.062500     48.000000
  0.354167  0.270833  0.062500     48.000000
  0.395833  0.270833  0.062500     48.000000
  0.437500  0.270833  0.062500     48.000000
  0.479167  0.270833  0.062500     48.000000
  0.312500  0.312500  0.062500     24.000000
  0.354167  0.312500  0.062500     48.000000
  0.395833  0.312500  0.062500     48.000000
  0.437500  0.312500  0.062500     48.000000
  0.479167  0.312500  0.062500     48.000000
  0.354167  0.354167  0.062500     24.000000
  0.395833  0.354167  0.062500     48.000000
  0.437500  0.354167  0.062500     48.000000
  0.479167  0.354167  0.062500     48.000000
  0.395833  0.395833  0.062500     24.000000
  0.437500  0.395833  0.062500     48.000000
  0.479167  0.395833  0.062500     48.000000
  0.437500  0.437500  0.062500     24.000000
  0.479167  0.437500  0.062500     48.000000
  0.479167  0.479167  0.062500     24.000000
  0.104167  0.104167  0.104167      8.000000
  0.145833  0.104167  0.104167     24.000000
  0.187500  0.104167  0.104167     24.000000
  0.229167  0.104167  0.104167     24.000000
  0.270833  0.104167  0.104167     24.000000
  0.312500  0.104167  0.104167     24.000000
  0.354167  0.104167  0.104167     24.000000
  0.395833  0.104167  0.104167     24.000000
  0.437500  0.104167  0.104167     24.000000
  0.479167  0.104167  0.104167     24.000000
  0.145833  0.145833  0.104167     24.000000
  0.187500  0.145833  0.104167     48.000000
  0.229167  0.145833  0.104167     48.000000
  0.270833  0.145833  0.104167     48.000000
  0.312500  0.145833  0.104167     48.000000
  0.354167  0.145833  0.104167     48.000000
  0.395833  0.145833  0.104167     48.000000
  0.437500  0.145833  0.104167     48.000000
  0.479167  0.145833  0.104167     48.000000
  0.187500  0.187500  0.104167     24.000000
  0.229167  0.187500  0.104167     48.000000
  0.270833  0.187500  0.104167     48.000000
  0.312500  0.187500  0.104167     48.000000
  0.354167  0.187500  0.104167     48.000000
  0.395833  0.187500  0.104167     48.000000
  0.437500  0.187500  0.104167     48.000000
  0.479167  0.187500  0.104167     48.000000
  0.229167  0.229167  0.104167     24.000000
  0.270833  0.229167  0.104167     48.000000
  0.312500  0.229167  0.104167     48.000000
  0.354167  0.229167  0.104167     48.000000
  0.395833  0.229167  0.104167     48.000000
  0.437500  0.229167  0.104167     48.000000
  0.479167  0.229167  0.104167     48.000000
  0.270833  0.270833  0.104167     24.000000
  0.312500  0.270833  0.104167     48.000000
  0.354167  0.270833  0.104167     48.000000
  0.395833  0.270833  0.104167     48.000000
  0.437500  0.270833  0.104167     48.000000
  0.479167  0.270833  0.104167     48.000000
  0.312500  0.312500  0.104167     24.000000
  0.354167  0.312500  0.104167     48.000000
  0.395833  0.312500  0.104167     48.000000
  0.437500  0.312500  0.104167     48.000000
  0.479167  0.312500  0.104167     48.000000
  0.354167  0.354167  0.104167     24.000000
  0.395833  0.354167  0.104167     48.000000
  0.437500  0.354167  0.104167     48.000000
  0.479167  0.354167  0.104167     48.000000
  0.395833  0.395833  0.104167     24.000000
  0.437500  0.395833  0.104167     48.000000
  0.479167  0.395833  0.104167     48.000000
  0.437500  0.437500  0.104167     24.000000
  0.479167  0.437500  0.104167     48.000000
  0.479167  0.479167  0.104167     24.000000
  0.145833  0.145833  0.145833      8.000000
  0.187500  0.145833  0.145833     24.000000
  0.229167  0.145833  0.145833     24.000000
  0.270833  0.145833  0.145833     24.000000
  0.312500  0.145833  0.145833     24.000000
  0.354167  0.145833  0.145833     24.000000
  0.395833  0.145833  0.145833     24.000000
  0.437500  0.145833  0.145833     24.000000
  0.479167  0.145833  0.145833     24.000000
  0.187500  0.187500  0.145833     24.000000
  0.229167  0.187500  0.145833     48.000000
  0.270833  0.187500  0.145833     48.000000
  0.312500  0.187500  0.145833     48.000000
  0.354167  0.187500  0.145833     48.000000
  0.395833  0.187500  0.145833     48.000000
  0.437500  0.187500  0.145833     48.000000
  0.479167  0.187500  0.145833     48.000000
  0.229167  0.229167  0.145833     24.000000
  0.270833  0.229167  0.145833     48.000000
  0.312500  0.229167  0.145833     48.000000
  0.354167  0.229167  0.145833     48.000000
  0.395833  0.229167  0.145833     48.000000
  0.437500  0.229167  0.145833     48.000000
  0.479167  0.229167  0.145833     48.000000
  0.270833  0.270833  0.145833     24.000000
  0.312500  0.270833  0.145833     48.000000
  0.354167  0.270833  0.145833     48.000000
  0.395833  0.270833  0.145833     48.000000
  0.437500  0.270833  0.145833     48.000000
  0.479167  0.270833  0.145833     48.000000
  0.312500  0.312500  0.145833     24.000000
  0.354167  0.312500  0.145833     48.000000
  0.395833  0.312500  0.145833     48.000000
  0.437500  0.312500  0.145833     48.000000
  0.479167  0.312500  0.145833     48.000000
  0.354167  0.354167  0.145833     24.000000
  0.395833  0.354167  0.145833     48.000000
  0.437500  0.354167  0.145833     48.000000
  0.479167  0.354167  0.145833     48.000000
  0.395833  0.395833  0.145833     24.000000
  0.437500  0.395833  0.145833     48.000000
  0.479167  0.395833  0.145833     48.000000
  0.437500  0.437500  0.145833     24.000000
  0.479167  0.437500  0.145833     48.000000
  0.479167  0.479167  0.145833     24.000000
  0.187500  0.187500  0.187500      8.000000
  0.229167  0.187500  0.187500     24.000000
  0.270833  0.187500  0.187500     24.000000
  0.312500  0.187500  0.187500     24.000000
  0.354167  0.187500  0.187500     24.000000
  0.395833  0.187500  0.187500     24.000000
  0.437500  0.187500  0.187500     24.000000
  0.479167  0.187500  0.187500     24.000000
  0.229167  0.229167  0.187500     24.000000
  0.270833  0.229167  0.187500     48.000000
  0.312500  0.229167  0.187500     48.000000
  0.354167  0.229167  0.187500     48.000000
  0.395833  0.229167  0.187500     48.000000
  0.437500  0.229167  0.187500     48.000000
  0.479167  0.229167  0.187500     48.000000
  0.270833  0.270833  0.187500     24.000000
  0.312500  0.270833  0.187500     48.000000
  0.354167  0.270833  0.187500     48.000000
  0.395833  0.270833  0.187500     48.000000
  0.437500  0.270833  0.187500     48.000000
  0.479167  0.270833  0.187500     48.000000
  0.312500  0.312500  0.187500     24.000000
  0.354167  0.312500  0.187500     48.000000
  0.395833  0.312500  0.187500     48.000000
  0.437500  0.312500  0.187500     48.000000
  0.479167  0.312500  0.187500     48.000000
  0.354167  0.354167  0.187500     24.000000
  0.395833  0.354167  0.187500     48.000000
  0.437500  0.354167  0.187500     48.000000
  0.479167  0.354167  0.187500     48.000000
  0.395833  0.395833  0.187500     24.000000
  0.437500  0.395833  0.187500     48.000000
  0.479167  0.395833  0.187500     48.000000
  0.437500  0.437500  0.187500     24.000000
  0.479167  0.437500  0.187500     48.000000
  0.479167  0.479167  0.187500     24.000000
  0.229167  0.229167  0.229167      8.000000
  0.270833  0.229167  0.229167     24.000000
  0.312500  0.229167  0.229167     24.000000
  0.354167  0.229167  0.229167     24.000000
  0.395833  0.229167  0.229167     24.000000
  0.437500  0.229167  0.229167     24.000000
  0.479167  0.229167  0.229167     24.000000
  0.270833  0.270833  0.229167     24.000000
  0.312500  0.270833  0.229167     48.000000
  0.354167  0.270833  0.229167     48.000000
  0.395833  0.270833  0.229167     48.000000
  0.437500  0.270833  0.229167     48.000000
  0.479167  0.270833  0.229167     48.000000
  0.312500  0.312500  0.229167     24.000000
  0.354167  0.312500  0.229167     48.000000
  0.395833  0.312500  0.229167     48.000000
  0.437500  0.312500  0.229167     48.000000
  0.479167  0.312500  0.229167     48.000000
  0.354167  0.354167  0.229167     24.000000
  0.395833  0.354167  0.229167     48.000000
  0.437500  0.354167  0.229167     48.000000
  0.479167  0.354167  0.229167     48.000000
  0.395833  0.395833  0.229167     24.000000
  0.437500  0.395833  0.229167     48.000000
  0.479167  0.395833  0.229167     48.000000
  0.437500  0.437500  0.229167     24.000000
  0.479167  0.437500  0.229167     48.000000
  0.479167  0.479167  0.229167     24.000000
  0.270833  0.270833  0.270833      8.000000
  0.312500  0.270833  0.270833     24.000000
  0.354167  0.270833  0.270833     24.000000
  0.395833  0.270833  0.270833     24.000000
  0.437500  0.270833  0.270833     24.000000
  0.479167  0.270833  0.270833     24.000000
  0.312500  0.312500  0.270833     24.000000
  0.354167  0.312500  0.270833     48.000000
  0.395833  0.312500  0.270833     48.000000
  0.437500  0.312500  0.270833     48.000000
  0.479167  0.312500  0.270833     48.000000
  0.354167  0.354167  0.270833     24.000000
  0.395833  0.354167  0.270833     48.000000
  0.437500  0.354167  0.270833     48.000000
  0.479167  0.354167  0.270833     48.000000
  0.395833  0.395833  0.270833     24.000000
  0.437500  0.395833  0.270833     48.000000
  0.479167  0.395833  0.270833     48.000000
  0.437500  0.437500  0.270833     24.000000
  0.479167  0.437500  0.270833     48.000000
  0.479167  0.479167  0.270833     24.000000
  0.312500  0.312500  0.312500      8.000000
  0.354167  0.312500  0.312500     24.000000
  0.395833  0.312500  0.312500     24.000000
  0.437500  0.312500  0.312500     24.000000
  0.479167  0.312500  0.312500     24.000000
  0.354167  0.354167  0.312500     24.000000
  0.395833  0.354167  0.312500     48.000000
  0.437500  0.354167  0.312500     48.000000
  0.479167  0.354167  0.312500     48.000000
  0.395833  0.395833  0.312500     24.000000
  0.437500  0.395833  0.312500     48.000000
  0.479167  0.395833  0.312500     48.000000
  0.437500  0.437500  0.312500     24.000000
  0.479167  0.437500  0.312500     48.000000
  0.479167  0.479167  0.312500     24.000000
  0.354167  0.354167  0.354167      8.000000
  0.395833  0.354167  0.354167     24.000000
  0.437500  0.354167  0.354167     24.000000
  0.479167  0.354167  0.354167     24.000000
  0.395833  0.395833  0.354167     24.000000
  0.437500  0.395833  0.354167     48.000000
  0.479167  0.395833  0.354167     48.000000
  0.437500  0.437500  0.354167     24.000000
  0.479167  0.437500  0.354167     48.000000
  0.479167  0.479167  0.354167     24.000000
  0.395833  0.395833  0.395833      8.000000
  0.437500  0.395833  0.395833     24.000000
  0.479167  0.395833  0.395833     24.000000
  0.437500  0.437500  0.395833     24.000000
  0.479167  0.437500  0.395833     48.000000
  0.479167  0.479167  0.395833     24.000000
  0.437500  0.437500  0.437500      8.000000
  0.479167  0.437500  0.437500     24.000000
  0.479167  0.479167  0.437500     24.000000
  0.479167  0.479167  0.479167      8.000000
 
 Following cartesian coordinates:
            Coordinates               Weight
  0.020833  0.020833  0.020833      8.000000
  0.062500  0.020833  0.020833     24.000000
  0.104167  0.020833  0.020833     24.000000
  0.145833  0.020833  0.020833     24.000000
  0.187500  0.020833  0.020833     24.000000
  0.229167  0.020833  0.020833     24.000000
  0.270833  0.020833  0.020833     24.000000
  0.312500  0.020833  0.020833     24.000000
  0.354167  0.020833  0.020833     24.000000
  0.395833  0.020833  0.020833     24.000000
  0.437500  0.020833  0.020833     24.000000
  0.479167  0.020833  0.020833     24.000000
  0.062500  0.062500  0.020833     24.000000
  0.104167  0.062500  0.020833     48.000000
  0.145833  0.062500  0.020833     48.000000
  0.187500  0.062500  0.020833     48.000000
  0.229167  0.062500  0.020833     48.000000
  0.270833  0.062500  0.020833     48.000000
  0.312500  0.062500  0.020833     48.000000
  0.354167  0.062500  0.020833     48.000000
  0.395833  0.062500  0.020833     48.000000
  0.437500  0.062500  0.020833     48.000000
  0.479167  0.062500  0.020833     48.000000
  0.104167  0.104167  0.020833     24.000000
  0.145833  0.104167  0.020833     48.000000
  0.187500  0.104167  0.020833     48.000000
  0.229167  0.104167  0.020833     48.000000
  0.270833  0.104167  0.020833     48.000000
  0.312500  0.104167  0.020833     48.000000
  0.354167  0.104167  0.020833     48.000000
  0.395833  0.104167  0.020833     48.000000
  0.437500  0.104167  0.020833     48.000000
  0.479167  0.104167  0.020833     48.000000
  0.145833  0.145833  0.020833     24.000000
  0.187500  0.145833  0.020833     48.000000
  0.229167  0.145833  0.020833     48.000000
  0.270833  0.145833  0.020833     48.000000
  0.312500  0.145833  0.020833     48.000000
  0.354167  0.145833  0.020833     48.000000
  0.395833  0.145833  0.020833     48.000000
  0.437500  0.145833  0.020833     48.000000
  0.479167  0.145833  0.020833     48.000000
  0.187500  0.187500  0.020833     24.000000
  0.229167  0.187500  0.020833     48.000000
  0.270833  0.187500  0.020833     48.000000
  0.312500  0.187500  0.020833     48.000000
  0.354167  0.187500  0.020833     48.000000
  0.395833  0.187500  0.020833     48.000000
  0.437500  0.187500  0.020833     48.000000
  0.479167  0.187500  0.020833     48.000000
  0.229167  0.229167  0.020833     24.000000
  0.270833  0.229167  0.020833     48.000000
  0.312500  0.229167  0.020833     48.000000
  0.354167  0.229167  0.020833     48.000000
  0.395833  0.229167  0.020833     48.000000
  0.437500  0.229167  0.020833     48.000000
  0.479167  0.229167  0.020833     48.000000
  0.270833  0.270833  0.020833     24.000000
  0.312500  0.270833  0.020833     48.000000
  0.354167  0.270833  0.020833     48.000000
  0.395833  0.270833  0.020833     48.000000
  0.437500  0.270833  0.020833     48.000000
  0.479167  0.270833  0.020833     48.000000
  0.312500  0.312500  0.020833     24.000000
  0.354167  0.312500  0.020833     48.000000
  0.395833  0.312500  0.020833     48.000000
  0.437500  0.312500  0.020833     48.000000
  0.479167  0.312500  0.020833     48.000000
  0.354167  0.354167  0.020833     24.000000
  0.395833  0.354167  0.020833     48.000000
  0.437500  0.354167  0.020833     48.000000
  0.479167  0.354167  0.020833     48.000000
  0.395833  0.395833  0.020833     24.000000
  0.437500  0.395833  0.020833     48.000000
  0.479167  0.395833  0.020833     48.000000
  0.437500  0.437500  0.020833     24.000000
  0.479167  0.437500  0.020833     48.000000
  0.479167  0.479167  0.020833     24.000000
  0.062500  0.062500  0.062500      8.000000
  0.104167  0.062500  0.062500     24.000000
  0.145833  0.062500  0.062500     24.000000
  0.187500  0.062500  0.062500     24.000000
  0.229167  0.062500  0.062500     24.000000
  0.270833  0.062500  0.062500     24.000000
  0.312500  0.062500  0.062500     24.000000
  0.354167  0.062500  0.062500     24.000000
  0.395833  0.062500  0.062500     24.000000
  0.437500  0.062500  0.062500     24.000000
  0.479167  0.062500  0.062500     24.000000
  0.104167  0.104167  0.062500     24.000000
  0.145833  0.104167  0.062500     48.000000
  0.187500  0.104167  0.062500     48.000000
  0.229167  0.104167  0.062500     48.000000
  0.270833  0.104167  0.062500     48.000000
  0.312500  0.104167  0.062500     48.000000
  0.354167  0.104167  0.062500     48.000000
  0.395833  0.104167  0.062500     48.000000
  0.437500  0.104167  0.062500     48.000000
  0.479167  0.104167  0.062500     48.000000
  0.145833  0.145833  0.062500     24.000000
  0.187500  0.145833  0.062500     48.000000
  0.229167  0.145833  0.062500     48.000000
  0.270833  0.145833  0.062500     48.000000
  0.312500  0.145833  0.062500     48.000000
  0.354167  0.145833  0.062500     48.000000
  0.395833  0.145833  0.062500     48.000000
  0.437500  0.145833  0.062500     48.000000
  0.479167  0.145833  0.062500     48.000000
  0.187500  0.187500  0.062500     24.000000
  0.229167  0.187500  0.062500     48.000000
  0.270833  0.187500  0.062500     48.000000
  0.312500  0.187500  0.062500     48.000000
  0.354167  0.187500  0.062500     48.000000
  0.395833  0.187500  0.062500     48.000000
  0.437500  0.187500  0.062500     48.000000
  0.479167  0.187500  0.062500     48.000000
  0.229167  0.229167  0.062500     24.000000
  0.270833  0.229167  0.062500     48.000000
  0.312500  0.229167  0.062500     48.000000
  0.354167  0.229167  0.062500     48.000000
  0.395833  0.229167  0.062500     48.000000
  0.437500  0.229167  0.062500     48.000000
  0.479167  0.229167  0.062500     48.000000
  0.270833  0.270833  0.062500     24.000000
  0.312500  0.270833  0.062500     48.000000
  0.354167  0.270833  0.062500     48.000000
  0.395833  0.270833  0.062500     48.000000
  0.437500  0.270833  0.062500     48.000000
  0.479167  0.270833  0.062500     48.000000
  0.312500  0.312500  0.062500     24.000000
  0.354167  0.312500  0.062500     48.000000
  0.395833  0.312500  0.062500     48.000000
  0.437500  0.312500  0.062500     48.000000
  0.479167  0.312500  0.062500     48.000000
  0.354167  0.354167  0.062500     24.000000
  0.395833  0.354167  0.062500     48.000000
  0.437500  0.354167  0.062500     48.000000
  0.479167  0.354167  0.062500     48.000000
  0.395833  0.395833  0.062500     24.000000
  0.437500  0.395833  0.062500     48.000000
  0.479167  0.395833  0.062500     48.000000
  0.437500  0.437500  0.062500     24.000000
  0.479167  0.437500  0.062500     48.000000
  0.479167  0.479167  0.062500     24.000000
  0.104167  0.104167  0.104167      8.000000
  0.145833  0.104167  0.104167     24.000000
  0.187500  0.104167  0.104167     24.000000
  0.229167  0.104167  0.104167     24.000000
  0.270833  0.104167  0.104167     24.000000
  0.312500  0.104167  0.104167     24.000000
  0.354167  0.104167  0.104167     24.000000
  0.395833  0.104167  0.104167     24.000000
  0.437500  0.104167  0.104167     24.000000
  0.479167  0.104167  0.104167     24.000000
  0.145833  0.145833  0.104167     24.000000
  0.187500  0.145833  0.104167     48.000000
  0.229167  0.145833  0.104167     48.000000
  0.270833  0.145833  0.104167     48.000000
  0.312500  0.145833  0.104167     48.000000
  0.354167  0.145833  0.104167     48.000000
  0.395833  0.145833  0.104167     48.000000
  0.437500  0.145833  0.104167     48.000000
  0.479167  0.145833  0.104167     48.000000
  0.187500  0.187500  0.104167     24.000000
  0.229167  0.187500  0.104167     48.000000
  0.270833  0.187500  0.104167     48.000000
  0.312500  0.187500  0.104167     48.000000
  0.354167  0.187500  0.104167     48.000000
  0.395833  0.187500  0.104167     48.000000
  0.437500  0.187500  0.104167     48.000000
  0.479167  0.187500  0.104167     48.000000
  0.229167  0.229167  0.104167     24.000000
  0.270833  0.229167  0.104167     48.000000
  0.312500  0.229167  0.104167     48.000000
  0.354167  0.229167  0.104167     48.000000
  0.395833  0.229167  0.104167     48.000000
  0.437500  0.229167  0.104167     48.000000
  0.479167  0.229167  0.104167     48.000000
  0.270833  0.270833  0.104167     24.000000
  0.312500  0.270833  0.104167     48.000000
  0.354167  0.270833  0.104167     48.000000
  0.395833  0.270833  0.104167     48.000000
  0.437500  0.270833  0.104167     48.000000
  0.479167  0.270833  0.104167     48.000000
  0.312500  0.312500  0.104167     24.000000
  0.354167  0.312500  0.104167     48.000000
  0.395833  0.312500  0.104167     48.000000
  0.437500  0.312500  0.104167     48.000000
  0.479167  0.312500  0.104167     48.000000
  0.354167  0.354167  0.104167     24.000000
  0.395833  0.354167  0.104167     48.000000
  0.437500  0.354167  0.104167     48.000000
  0.479167  0.354167  0.104167     48.000000
  0.395833  0.395833  0.104167     24.000000
  0.437500  0.395833  0.104167     48.000000
  0.479167  0.395833  0.104167     48.000000
  0.437500  0.437500  0.104167     24.000000
  0.479167  0.437500  0.104167     48.000000
  0.479167  0.479167  0.104167     24.000000
  0.145833  0.145833  0.145833      8.000000
  0.187500  0.145833  0.145833     24.000000
  0.229167  0.145833  0.145833     24.000000
  0.270833  0.145833  0.145833     24.000000
  0.312500  0.145833  0.145833     24.000000
  0.354167  0.145833  0.145833     24.000000
  0.395833  0.145833  0.145833     24.000000
  0.437500  0.145833  0.145833     24.000000
  0.479167  0.145833  0.145833     24.000000
  0.187500  0.187500  0.145833     24.000000
  0.229167  0.187500  0.145833     48.000000
  0.270833  0.187500  0.145833     48.000000
  0.312500  0.187500  0.145833     48.000000
  0.354167  0.187500  0.145833     48.000000
  0.395833  0.187500  0.145833     48.000000
  0.437500  0.187500  0.145833     48.000000
  0.479167  0.187500  0.145833     48.000000
  0.229167  0.229167  0.145833     24.000000
  0.270833  0.229167  0.145833     48.000000
  0.312500  0.229167  0.145833     48.000000
  0.354167  0.229167  0.145833     48.000000
  0.395833  0.229167  0.145833     48.000000
  0.437500  0.229167  0.145833     48.000000
  0.479167  0.229167  0.145833     48.000000
  0.270833  0.270833  0.145833     24.000000
  0.312500  0.270833  0.145833     48.000000
  0.354167  0.270833  0.145833     48.000000
  0.395833  0.270833  0.145833     48.000000
  0.437500  0.270833  0.145833     48.000000
  0.479167  0.270833  0.145833     48.000000
  0.312500  0.312500  0.145833     24.000000
  0.354167  0.312500  0.145833     48.000000
  0.395833  0.312500  0.145833     48.000000
  0.437500  0.312500  0.145833     48.000000
  0.479167  0.312500  0.145833     48.000000
  0.354167  0.354167  0.145833     24.000000
  0.395833  0.354167  0.145833     48.000000
  0.437500  0.354167  0.145833     48.000000
  0.479167  0.354167  0.145833     48.000000
  0.395833  0.395833  0.145833     24.000000
  0.437500  0.395833  0.145833     48.000000
  0.479167  0.395833  0.145833     48.000000
  0.437500  0.437500  0.145833     24.000000
  0.479167  0.437500  0.145833     48.000000
  0.479167  0.479167  0.145833     24.000000
  0.187500  0.187500  0.187500      8.000000
  0.229167  0.187500  0.187500     24.000000
  0.270833  0.187500  0.187500     24.000000
  0.312500  0.187500  0.187500     24.000000
  0.354167  0.187500  0.187500     24.000000
  0.395833  0.187500  0.187500     24.000000
  0.437500  0.187500  0.187500     24.000000
  0.479167  0.187500  0.187500     24.000000
  0.229167  0.229167  0.187500     24.000000
  0.270833  0.229167  0.187500     48.000000
  0.312500  0.229167  0.187500     48.000000
  0.354167  0.229167  0.187500     48.000000
  0.395833  0.229167  0.187500     48.000000
  0.437500  0.229167  0.187500     48.000000
  0.479167  0.229167  0.187500     48.000000
  0.270833  0.270833  0.187500     24.000000
  0.312500  0.270833  0.187500     48.000000
  0.354167  0.270833  0.187500     48.000000
  0.395833  0.270833  0.187500     48.000000
  0.437500  0.270833  0.187500     48.000000
  0.479167  0.270833  0.187500     48.000000
  0.312500  0.312500  0.187500     24.000000
  0.354167  0.312500  0.187500     48.000000
  0.395833  0.312500  0.187500     48.000000
  0.437500  0.312500  0.187500     48.000000
  0.479167  0.312500  0.187500     48.000000
  0.354167  0.354167  0.187500     24.000000
  0.395833  0.354167  0.187500     48.000000
  0.437500  0.354167  0.187500     48.000000
  0.479167  0.354167  0.187500     48.000000
  0.395833  0.395833  0.187500     24.000000
  0.437500  0.395833  0.187500     48.000000
  0.479167  0.395833  0.187500     48.000000
  0.437500  0.437500  0.187500     24.000000
  0.479167  0.437500  0.187500     48.000000
  0.479167  0.479167  0.187500     24.000000
  0.229167  0.229167  0.229167      8.000000
  0.270833  0.229167  0.229167     24.000000
  0.312500  0.229167  0.229167     24.000000
  0.354167  0.229167  0.229167     24.000000
  0.395833  0.229167  0.229167     24.000000
  0.437500  0.229167  0.229167     24.000000
  0.479167  0.229167  0.229167     24.000000
  0.270833  0.270833  0.229167     24.000000
  0.312500  0.270833  0.229167     48.000000
  0.354167  0.270833  0.229167     48.000000
  0.395833  0.270833  0.229167     48.000000
  0.437500  0.270833  0.229167     48.000000
  0.479167  0.270833  0.229167     48.000000
  0.312500  0.312500  0.229167     24.000000
  0.354167  0.312500  0.229167     48.000000
  0.395833  0.312500  0.229167     48.000000
  0.437500  0.312500  0.229167     48.000000
  0.479167  0.312500  0.229167     48.000000
  0.354167  0.354167  0.229167     24.000000
  0.395833  0.354167  0.229167     48.000000
  0.437500  0.354167  0.229167     48.000000
  0.479167  0.354167  0.229167     48.000000
  0.395833  0.395833  0.229167     24.000000
  0.437500  0.395833  0.229167     48.000000
  0.479167  0.395833  0.229167     48.000000
  0.437500  0.437500  0.229167     24.000000
  0.479167  0.437500  0.229167     48.000000
  0.479167  0.479167  0.229167     24.000000
  0.270833  0.270833  0.270833      8.000000
  0.312500  0.270833  0.270833     24.000000
  0.354167  0.270833  0.270833     24.000000
  0.395833  0.270833  0.270833     24.000000
  0.437500  0.270833  0.270833     24.000000
  0.479167  0.270833  0.270833     24.000000
  0.312500  0.312500  0.270833     24.000000
  0.354167  0.312500  0.270833     48.000000
  0.395833  0.312500  0.270833     48.000000
  0.437500  0.312500  0.270833     48.000000
  0.479167  0.312500  0.270833     48.000000
  0.354167  0.354167  0.270833     24.000000
  0.395833  0.354167  0.270833     48.000000
  0.437500  0.354167  0.270833     48.000000
  0.479167  0.354167  0.270833     48.000000
  0.395833  0.395833  0.270833     24.000000
  0.437500  0.395833  0.270833     48.000000
  0.479167  0.395833  0.270833     48.000000
  0.437500  0.437500  0.270833     24.000000
  0.479167  0.437500  0.270833     48.000000
  0.479167  0.479167  0.270833     24.000000
  0.312500  0.312500  0.312500      8.000000
  0.354167  0.312500  0.312500     24.000000
  0.395833  0.312500  0.312500     24.000000
  0.437500  0.312500  0.312500     24.000000
  0.479167  0.312500  0.312500     24.000000
  0.354167  0.354167  0.312500     24.000000
  0.395833  0.354167  0.312500     48.000000
  0.437500  0.354167  0.312500     48.000000
  0.479167  0.354167  0.312500     48.000000
  0.395833  0.395833  0.312500     24.000000
  0.437500  0.395833  0.312500     48.000000
  0.479167  0.395833  0.312500     48.000000
  0.437500  0.437500  0.312500     24.000000
  0.479167  0.437500  0.312500     48.000000
  0.479167  0.479167  0.312500     24.000000
  0.354167  0.354167  0.354167      8.000000
  0.395833  0.354167  0.354167     24.000000
  0.437500  0.354167  0.354167     24.000000
  0.479167  0.354167  0.354167     24.000000
  0.395833  0.395833  0.354167     24.000000
  0.437500  0.395833  0.354167     48.000000
  0.479167  0.395833  0.354167     48.000000
  0.437500  0.437500  0.354167     24.000000
  0.479167  0.437500  0.354167     48.000000
  0.479167  0.479167  0.354167     24.000000
  0.395833  0.395833  0.395833      8.000000
  0.437500  0.395833  0.395833     24.000000
  0.479167  0.395833  0.395833     24.000000
  0.437500  0.437500  0.395833     24.000000
  0.479167  0.437500  0.395833     48.000000
  0.479167  0.479167  0.395833     24.000000
  0.437500  0.437500  0.437500      8.000000
  0.479167  0.437500  0.437500     24.000000
  0.479167  0.479167  0.437500     24.000000
  0.479167  0.479167  0.479167      8.000000
 
 TETIRR: Found   6829 inequivalent tetrahedra from    82944


--------------------------------------------------------------------------------------------------------




 Dimension of arrays:
   k-points           NKPTS =    364   k-points in BZ     NKDIM =    364   number of bands    NBANDS=     10
   number of dos      NEDOS =   4001   number of ions     NIONS =      4
   non local maximal  LDIM  =      4   non local SUM 2l+1 LMDIM =      8
   total plane-waves  NPLWV =  13824
   max r-space proj   IRMAX =      1   max aug-charges    IRDMAX=   2146
   dimension x,y,z NGX =    24 NGY =   24 NGZ =   24
   dimension x,y,z NGXF=    28 NGYF=   28 NGZF=   28
   support grid    NGXF=    28 NGYF=   28 NGZF=   28
   ions per type =               4
 NGX,Y,Z   is equivalent  to a cutoff of  10.50, 10.50, 10.50 a.u.
 NGXF,Y,Z  is equivalent  to a cutoff of  12.25, 12.25, 12.25 a.u.


 I would recommend the setting:
   dimension x,y,z NGX =    21 NGY =   21 NGZ =   21
 SYSTEM =  Al                                      
 POSCAR =  Al                                      

 Startparameter for this run:
   NWRITE =      2    write-flag & timer
   PREC   = high      normal or accurate (medium, high low for compatibility)
   ISTART =      0    job   : 0-new  1-cont  2-samecut
   ICHARG =      2    charge: 1-file 2-atom 10-const
   ISPIN  =      1    spin polarized calculation?
   LNONCOLLINEAR =      F non collinear calculations
   LSORBIT =      F    spin-orbit coupling
   INIWAV =      1    electr: 0-lowe 1-rand  2-diag
   LASPH  =      F    aspherical Exc in radial PAW
   METAGGA=      F    non-selfconsistent MetaGGA calc.

 Electronic Relaxation 1
   ENCUT  =  300.4 eV  22.08 Ry    4.70 a.u.   5.37  5.37  5.37*2*pi/ulx,y,z
   ENINI  =  300.4     initial cutoff
   ENAUG  =  291.1 eV  augmentation charge cutoff
   NELM   =    200;   NELMIN=  2; NELMDL= -5     # of ELM steps 
   EDIFF  = 0.1E-03   stopping-criterion for ELM
   LREAL  =      F    real-space projection
   NLSPLINE    = F    spline interpolate recip. space projectors
   LCOMPAT=      F    compatible to vasp.4.4
   GGA_COMPAT  = T    GGA compatible to vasp.4.4-vasp.4.6
   LMAXPAW     = -100 max onsite density
   LMAXMIX     =    2 max onsite mixed and CHGCAR
   VOSKOWN=      1    Vosko Wilk Nusair interpolation
   ROPT   =    0.00000
 Ionic relaxation
   EDIFFG = 0.1E-02   stopping-criterion for IOM
   NSW    =      0    number of steps for IOM
   NBLOCK =      1;   KBLOCK =      1    inner block; outer block 
   IBRION =     -1    ionic relax: 0-MD 1-quasi-New 2-CG
   NFREE  =      0    steps in history (QN), initial steepest desc. (CG)
   ISIF   =      2    stress and relaxation
   IWAVPR =     10    prediction:  0-non 1-charg 2-wave 3-comb
   ISYM   =      2    0-nonsym 1-usesym 2-fastsym
   LCORR  =      T    Harris-Foulkes like correction to forces

   POTIM  = 0.5000    time-step for ionic-motion
   TEIN   =    0.0    initial temperature
   TEBEG  =    0.0;   TEEND  =   0.0 temperature during run
   SMASS  =  -3.00    Nose mass-parameter (am)
   estimated Nose-frequenzy (Omega)   =  0.10E-29 period in steps =****** mass=  -0.330E-27a.u.
   SCALEE = 1.0000    scale energy and forces
   NPACO  =    256;   APACO  = 16.0  distance and # of slots for P.C.
   PSTRESS=    0.0 pullay stress

  Mass of Ions in am
   POMASS =  26.98
  Ionic Valenz
   ZVAL   =   3.00
  Atomic Wigner-Seitz radii
   RWIGS  =   1.40
  virtual crystal weights 
   VCA    =   1.00
   NELECT =      12.0000    total number of electrons
   NUPDOWN=      -1.0000    fix difference up-down

 DOS related values:
   EMIN   =  10.00;   EMAX   =-10.00  energy-range for DOS
   EFERMI =   0.00
   ISMEAR =    -5;   SIGMA  =   0.20  broadening in eV -4-tet -1-fermi 0-gaus

 Electronic relaxation 2 (details)
   IALGO  =     38    algorithm
   LDIAG  =      T    sub-space diagonalisation (order eigenvalues)
   LSUBROT=      F    optimize rotation matrix (better conditioning)
   TURBO    =      0    0=normal 1=particle mesh
   IRESTART =      0    0=no restart 2=restart with 2 vectors
   NREBOOT  =      0    no. of reboots
   NMIN     =      0    reboot dimension
   EREF     =   0.00    reference energy to select bands
   IMIX   =      4    mixing-type and parameters
     AMIX     =   0.40;   BMIX     =  1.00
     AMIX_MAG =   1.60;   BMIX_MAG =  1.00
     AMIN     =   0.10
     WC   =   100.;   INIMIX=   1;  MIXPRE=   1;  MAXMIX= -45

 Intra band minimization:
   WEIMIN = 0.0000     energy-eigenvalue tresh-hold
   EBREAK =  0.25E-05  absolut break condition
   DEPER  =   0.30     relativ break condition  

   TIME   =   0.40     timestep for ELM

  volume/ion in A,a.u.               =      13.72        92.57
  Fermi-wavevector in a.u.,A,eV,Ry     =   0.986321  1.863877 13.236146  0.972829
  Thomas-Fermi vector in A             =   2.117693
 
 Write flags
   LWAVE  =      F    write WAVECAR
   LCHARG =      T    write CHGCAR
   LVTOT  =      F    write LOCPOT, total local potential
   LVHAR  =      F    write LOCPOT, Hartree potential only
   LELF   =      F    write electronic localiz. function (ELF)
   LORBIT =      0    0 simple, 1 ext, 2 COOP (PROOUT)


 Dipole corrections
   LMONO  =      F    monopole corrections only (constant potential shift)
   LDIPOL =      F    correct potential (dipole corrections)
   IDIPOL =      0    1-x, 2-y, 3-z, 4-all directions 
   EPSILON=  1.0000000 bulk dielectric constant

 Exchange correlation treatment:
   GGA     =    --    GGA type
   LEXCH   =     8    internal setting for exchange type
   VOSKOWN=      1    Vosko Wilk Nusair interpolation
   LHFCALC =     F    Hartree Fock is set to
   LHFONE  =     F    Hartree Fock one center treatment
   AEXX    =    0.0000 exact exchange contribution

 Linear response parameters
   LEPSILON=     F    determine dielectric tensor
   LRPA    =     F    only Hartree local field effects (RPA)
   LNABLA  =     F    use nabla operator in PAW spheres
   LVEL    =     F    velocity operator in full k-point grid
   LINTERFAST=   F  fast interpolation
   KINTER  =     0    interpolate to denser k-point grid
   CSHIFT  =0.1000    complex shift for real part using Kramers Kronig
   OMEGAMAX=  -1.0    maximum frequency
   DEG_THRESHOLD= 0.2000000E-02 threshold for treating states as degnerate
   RTIME   =    0.100 relaxation time in fs

 Orbital magnetization related:
   ORBITALMAG=     F  switch on orbital magnetization
   LCHIMAG   =     F  perturbation theory with respect to B field
   DQ        =  0.001000  dq finite difference perturbation B field



--------------------------------------------------------------------------------------------------------


 Static calculation
 charge density and potential will be updated during run
 non-spin polarized calculation
 Variant of blocked Davidson
 Davidson routine will perform the subspace rotation
 perform sub-space diagonalisation
    after iterative eigenvector-optimisation
 modified Broyden-mixing scheme, WC =      100.0
 initial mixing is a Kerker type mixing with AMIX =  0.4000 and BMIX =      1.0000
 Hartree-type preconditioning will be used
 using additional bands            4
 reciprocal scheme for non local part
 use partial core corrections
 calculate Harris-corrections to forces 
   (improved forces if not selfconsistent)
 use gradient corrections 
 use of overlap-Matrix (Vanderbilt PP)
 Fermi weights with tetrahedron method with Bloechl corrections


--------------------------------------------------------------------------------------------------------


  energy-cutoff  :      300.38
  volume of cell :       54.87
      direct lattice vectors                 reciprocal lattice vectors
     3.800000000  0.000000000  0.000000000     0.263157895  0.000000000  0.000000000
     0.000000000  3.800000000  0.000000000     0.000000000  0.263157895  0.000000000
     0.000000000  0.000000000  3.800000000     0.000000000  0.000000000  0.263157895

  length of vectors
     3.800000000  3.800000000  3.800000000     0.263157895  0.263157895  0.263157895


 
 k-points in units of 2pi/SCALE and weight: 24x24x24                                
   0.02083333  0.02083333  0.02083333       0.001
   0.06250000  0.02083333  0.02083333       0.002
   0.10416667  0.02083333  0.02083333       0.002
   0.14583333  0.02083333  0.02083333       0.002
   0.18750000  0.02083333  0.02083333       0.002
   0.22916667  0.02083333  0.02083333       0.002
   0.27083333  0.02083333  0.02083333       0.002
   0.31250000  0.02083333  0.02083333       0.002
   0.35416667  0.02083333  0.02083333       0.002
   0.39583333  0.02083333  0.02083333       0.002
   0.43750000  0.02083333  0.02083333       0.002
   0.47916667  0.02083333  0.02083333       0.002
   0.06250000  0.06250000  0.02083333       0.002
   0.10416667  0.06250000  0.02083333       0.003
   0.14583333  0.06250000  0.02083333       0.003
   0.18750000  0.06250000  0.02083333       0.003
   0.22916667  0.06250000  0.02083333       0.003
   0.27083333  0.06250000  0.02083333       0.003
   0.31250000  0.06250000  0.02083333       0.003
   0.35416667  0.06250000  0.02083333       0.003
   0.39583333  0.06250000  0.02083333       0.003
   0.43750000  0.06250000  0.02083333       0.003
   0.47916667  0.06250000  0.02083333       0.003
   0.10416667  0.10416667  0.02083333       0.002
   0.14583333  0.10416667  0.02083333       0.003
   0.18750000  0.10416667  0.02083333       0.003
   0.22916667  0.10416667  0.02083333       0.003
   0.27083333  0.10416667  0.02083333       0.003
   0.31250000  0.10416667  0.02083333       0.003
   0.35416667  0.10416667  0.02083333       0.003
   0.39583333  0.10416667  0.02083333       0.003
   0.43750000  0.10416667  0.02083333       0.003
   0.47916667  0.10416667  0.02083333       0.003
   0.14583333  0.14583333  0.02083333       0.002
   0.18750000  0.14583333  0.02083333       0.003
   0.22916667  0.14583333  0.02083333       0.003
   0.27083333  0.14583333  0.02083333       0.003
   0.31250000  0.14583333  0.02083333       0.003
   0.35416667  0.14583333  0.02083333       0.003
   0.39583333  0.14583333  0.02083333       0.003
   0.43750000  0.14583333  0.02083333       0.003
   0.47916667  0.14583333  0.02083333       0.003
   0.18750000  0.18750000  0.02083333       0.002
   0.22916667  0.18750000  0.02083333       0.003
   0.27083333  0.18750000  0.02083333       0.003
   0.31250000  0.18750000  0.02083333       0.003
   0.35416667  0.18750000  0.02083333       0.003
   0.39583333  0.18750000  0.02083333       0.003
   0.43750000  0.18750000  0.02083333       0.003
   0.47916667  0.18750000  0.02083333       0.003
   0.22916667  0.22916667  0.02083333       0.002
   0.27083333  0.22916667  0.02083333       0.003
   0.31250000  0.22916667  0.02083333       0.003
   0.35416667  0.22916667  0.02083333       0.003
   0.39583333  0.22916667  0.02083333       0.003
   0.43750000  0.22916667  0.02083333       0.003
   0.47916667  0.22916667  0.02083333       0.003
   0.27083333  0.27083333  0.02083333       0.002
   0.31250000  0.27083333  0.02083333       0.003
   0.35416667  0.27083333  0.02083333       0.003
   0.39583333  0.27083333  0.02083333       0.003
   0.43750000  0.27083333  0.02083333       0.003
   0.47916667  0.27083333  0.02083333       0.003
   0.31250000  0.31250000  0.02083333       0.002
   0.35416667  0.31250000  0.02083333       0.003
   0.39583333  0.31250000  0.02083333       0.003
   0.43750000  0.31250000  0.02083333       0.003
   0.47916667  0.31250000  0.02083333       0.003
   0.35416667  0.35416667  0.02083333       0.002
   0.39583333  0.35416667  0.02083333       0.003
   0.43750000  0.35416667  0.02083333       0.003
   0.47916667  0.35416667  0.02083333       0.003
   0.39583333  0.39583333  0.02083333       0.002
   0.43750000  0.39583333  0.02083333       0.003
   0.47916667  0.39583333  0.02083333       0.003
   0.43750000  0.43750000  0.02083333       0.002
   0.47916667  0.43750000  0.02083333       0.003
   0.47916667  0.47916667  0.02083333       0.002
   0.06250000  0.06250000  0.06250000       0.001
   0.10416667  0.06250000  0.06250000       0.002
   0.14583333  0.06250000  0.06250000       0.002
   0.18750000  0.06250000  0.06250000       0.002
   0.22916667  0.06250000  0.06250000       0.002
   0.27083333  0.06250000  0.06250000       0.002
   0.31250000  0.06250000  0.06250000       0.002
   0.35416667  0.06250000  0.06250000       0.002
   0.39583333  0.06250000  0.06250000       0.002
   0.43750000  0.06250000  0.06250000       0.002
   0.47916667  0.06250000  0.06250000       0.002
   0.10416667  0.10416667  0.06250000       0.002
   0.14583333  0.10416667  0.06250000       0.003
   0.18750000  0.10416667  0.06250000       0.003
   0.22916667  0.10416667  0.06250000       0.003
   0.27083333  0.10416667  0.06250000       0.003
   0.31250000  0.10416667  0.06250000       0.003
   0.35416667  0.10416667  0.06250000       0.003
   0.39583333  0.10416667  0.06250000       0.003
   0.43750000  0.10416667  0.06250000       0.003
   0.47916667  0.10416667  0.06250000       0.003
   0.14583333  0.14583333  0.06250000       0.002
   0.18750000  0.14583333  0.06250000       0.003
   0.22916667  0.14583333  0.06250000       0.003
   0.27083333  0.14583333  0.06250000       0.003
   0.31250000  0.14583333  0.06250000       0.003
   0.35416667  0.14583333  0.06250000       0.003
   0.39583333  0.14583333  0.06250000       0.003
   0.43750000  0.14583333  0.06250000       0.003
   0.47916667  0.14583333  0.06250000       0.003
   0.18750000  0.18750000  0.06250000       0.002
   0.22916667  0.18750000  0.06250000       0.003
   0.27083333  0.18750000  0.06250000       0.003
   0.31250000  0.18750000  0.06250000       0.003
   0.35416667  0.18750000  0.06250000       0.003
   0.39583333  0.18750000  0.06250000       0.003
   0.43750000  0.18750000  0.06250000       0.003
   0.47916667  0.18750000  0.06250000       0.003
   0.22916667  0.22916667  0.06250000       0.002
   0.27083333  0.22916667  0.06250000       0.003
   0.31250000  0.22916667  0.06250000       0.003
   0.35416667  0.22916667  0.06250000       0.003
   0.39583333  0.22916667  0.06250000       0.003
   0.43750000  0.22916667  0.06250000       0.003
   0.47916667  0.22916667  0.06250000       0.003
   0.27083333  0.27083333  0.06250000       0.002
   0.31250000  0.27083333  0.06250000       0.003
   0.35416667  0.27083333  0.06250000       0.003
   0.39583333  0.27083333  0.06250000       0.003
   0.43750000  0.27083333  0.06250000       0.003
   0.47916667  0.27083333  0.06250000       0.003
   0.31250000  0.31250000  0.06250000       0.002
   0.35416667  0.31250000  0.06250000       0.003
   0.39583333  0.31250000  0.06250000       0.003
   0.43750000  0.31250000  0.06250000       0.003
   0.47916667  0.31250000  0.06250000       0.003
   0.35416667  0.35416667  0.06250000       0.002
   0.39583333  0.35416667  0.06250000       0.003
   0.43750000  0.35416667  0.06250000       0.003
   0.47916667  0.35416667  0.06250000       0.003
   0.39583333  0.39583333  0.06250000       0.002
   0.43750000  0.39583333  0.06250000       0.003
   0.47916667  0.39583333  0.06250000       0.003
   0.43750000  0.43750000  0.06250000       0.002
   0.47916667  0.43750000  0.06250000       0.003
   0.47916667  0.47916667  0.06250000       0.002
   0.10416667  0.10416667  0.10416667       0.001
   0.14583333  0.10416667  0.10416667       0.002
   0.18750000  0.10416667  0.10416667       0.002
   0.22916667  0.10416667  0.10416667       0.002
   0.27083333  0.10416667  0.10416667       0.002
   0.31250000  0.10416667  0.10416667       0.002
   0.35416667  0.10416667  0.10416667       0.002
   0.39583333  0.10416667  0.10416667       0.002
   0.43750000  0.10416667  0.10416667       0.002
   0.47916667  0.10416667  0.10416667       0.002
   0.14583333  0.14583333  0.10416667       0.002
   0.18750000  0.14583333  0.10416667       0.003
   0.22916667  0.14583333  0.10416667       0.003
   0.27083333  0.14583333  0.10416667       0.003
   0.31250000  0.14583333  0.10416667       0.003
   0.35416667  0.14583333  0.10416667       0.003
   0.39583333  0.14583333  0.10416667       0.003
   0.43750000  0.14583333  0.10416667       0.003
   0.47916667  0.14583333  0.10416667       0.003
   0.18750000  0.18750000  0.10416667       0.002
   0.22916667  0.18750000  0.10416667       0.003
   0.27083333  0.18750000  0.10416667       0.003
   0.31250000  0.18750000  0.10416667       0.003
   0.35416667  0.18750000  0.10416667       0.003
   0.39583333  0.18750000  0.10416667       0.003
   0.43750000  0.18750000  0.10416667       0.003
   0.47916667  0.18750000  0.10416667       0.003
   0.22916667  0.22916667  0.10416667       0.002
   0.27083333  0.22916667  0.10416667       0.003
   0.31250000  0.22916667  0.10416667       0.003
   0.35416667  0.22916667  0.10416667       0.003
   0.39583333  0.22916667  0.10416667       0.003
   0.43750000  0.22916667  0.10416667       0.003
   0.47916667  0.22916667  0.10416667       0.003
   0.27083333  0.27083333  0.10416667       0.002
   0.31250000  0.27083333  0.10416667       0.003
   0.35416667  0.27083333  0.10416667       0.003
   0.39583333  0.27083333  0.10416667       0.003
   0.43750000  0.27083333  0.10416667       0.003
   0.47916667  0.27083333  0.10416667       0.003
   0.31250000  0.31250000  0.10416667       0.002
   0.35416667  0.31250000  0.10416667       0.003
   0.39583333  0.31250000  0.10416667       0.003
   0.43750000  0.31250000  0.10416667       0.003
   0.47916667  0.31250000  0.10416667       0.003
   0.35416667  0.35416667  0.10416667       0.002
   0.39583333  0.35416667  0.10416667       0.003
   0.43750000  0.35416667  0.10416667       0.003
   0.47916667  0.35416667  0.10416667       0.003
   0.39583333  0.39583333  0.10416667       0.002
   0.43750000  0.39583333  0.10416667       0.003
   0.47916667  0.39583333  0.10416667       0.003
   0.43750000  0.43750000  0.10416667       0.002
   0.47916667  0.43750000  0.10416667       0.003
   0.47916667  0.47916667  0.10416667       0.002
   0.14583333  0.14583333  0.14583333       0.001
   0.18750000  0.14583333  0.14583333       0.002
   0.22916667  0.14583333  0.14583333       0.002
   0.27083333  0.14583333  0.14583333       0.002
   0.31250000  0.14583333  0.14583333       0.002
   0.35416667  0.14583333  0.14583333       0.002
   0.39583333  0.14583333  0.14583333       0.002
   0.43750000  0.14583333  0.14583333       0.002
   0.47916667  0.14583333  0.14583333       0.002
   0.18750000  0.18750000  0.14583333       0.002
   0.22916667  0.18750000  0.14583333       0.003
   0.27083333  0.18750000  0.14583333       0.003
   0.31250000  0.18750000  0.14583333       0.003
   0.35416667  0.18750000  0.14583333       0.003
   0.39583333  0.18750000  0.14583333       0.003
   0.43750000  0.18750000  0.14583333       0.003
   0.47916667  0.18750000  0.14583333       0.003
   0.22916667  0.22916667  0.14583333       0.002
   0.27083333  0.22916667  0.14583333       0.003
   0.31250000  0.22916667  0.14583333       0.003
   0.35416667  0.22916667  0.14583333       0.003
   0.39583333  0.22916667  0.14583333       0.003
   0.43750000  0.22916667  0.14583333       0.003
   0.47916667  0.22916667  0.14583333       0.003
   0.27083333  0.27083333  0.14583333       0.002
   0.31250000  0.27083333  0.14583333       0.003
   0.35416667  0.27083333  0.14583333       0.003
   0.39583333  0.27083333  0.14583333       0.003
   0.43750000  0.27083333  0.14583333       0.003
   0.47916667  0.27083333  0.14583333       0.003
   0.31250000  0.31250000  0.14583333       0.002
   0.35416667  0.31250000  0.14583333       0.003
   0.39583333  0.31250000  0.14583333       0.003
   0.43750000  0.31250000  0.14583333       0.003
   0.47916667  0.31250000  0.14583333       0.003
   0.35416667  0.35416667  0.14583333       0.002
   0.39583333  0.35416667  0.14583333       0.003
   0.43750000  0.35416667  0.14583333       0.003
   0.47916667  0.35416667  0.14583333       0.003
   0.39583333  0.39583333  0.14583333       0.002
   0.43750000  0.39583333  0.14583333       0.003
   0.47916667  0.39583333  0.14583333       0.003
   0.43750000  0.43750000  0.14583333       0.002
   0.47916667  0.43750000  0.14583333       0.003
   0.47916667  0.47916667  0.14583333       0.002
   0.18750000  0.18750000  0.18750000       0.001
   0.22916667  0.18750000  0.18750000       0.002
   0.27083333  0.18750000  0.18750000       0.002
   0.31250000  0.18750000  0.18750000       0.002
   0.35416667  0.18750000  0.18750000       0.002
   0.39583333  0.18750000  0.18750000       0.002
   0.43750000  0.18750000  0.18750000       0.002
   0.47916667  0.18750000  0.18750000       0.002
   0.22916667  0.22916667  0.18750000       0.002
   0.27083333  0.22916667  0.18750000       0.003
   0.31250000  0.22916667  0.18750000       0.003
   0.35416667  0.22916667  0.18750000       0.003
   0.39583333  0.22916667  0.18750000       0.003
   0.43750000  0.22916667  0.18750000       0.003
   0.47916667  0.22916667  0.18750000       0.003
   0.27083333  0.27083333  0.18750000       0.002
   0.31250000  0.27083333  0.18750000       0.003
   0.35416667  0.27083333  0.18750000       0.003
   0.39583333  0.27083333  0.18750000       0.003
   0.43750000  0.27083333  0.18750000       0.003
   0.47916667  0.27083333  0.18750000       0.003
   0.31250000  0.31250000  0.18750000       0.002
   0.35416667  0.31250000  0.18750000       0.003
   0.39583333  0.31250000  0.18750000       0.003
   0.43750000  0.31250000  0.18750000       0.003
   0.47916667  0.31250000  0.18750000       0.003
   0.35416667  0.35416667  0.18750000       0.002
   0.39583333  0.35416667  0.18750000       0.003
   0.43750000  0.35416667  0.18750000       0.003
   0.47916667  0.35416667  0.18750000       0.003
   0.39583333  0.39583333  0.18750000       0.002
   0.43750000  0.39583333  0.18750000       0.003
   0.47916667  0.39583333  0.18750000       0.003
   0.43750000  0.43750000  0.18750000       0.002
   0.47916667  0.43750000  0.18750000       0.003
   0.47916667  0.47916667  0.18750000       0.002
   0.22916667  0.22916667  0.22916667       0.001
   0.27083333  0.22916667  0.22916667       0.002
   0.31250000  0.22916667  0.22916667       0.002
   0.35416667  0.22916667  0.22916667       0.002
   0.39583333  0.22916667  0.22916667       0.002
   0.43750000  0.22916667  0.22916667       0.002
   0.47916667  0.22916667  0.22916667       0.002
   0.27083333  0.27083333  0.22916667       0.002
   0.31250000  0.27083333  0.22916667       0.003
   0.35416667  0.27083333  0.22916667       0.003
   0.39583333  0.27083333  0.22916667       0.003
   0.43750000  0.27083333  0.22916667       0.003
   0.47916667  0.27083333  0.22916667       0.003
   0.31250000  0.31250000  0.22916667       0.002
   0.35416667  0.31250000  0.22916667       0.003
   0.39583333  0.31250000  0.22916667       0.003
   0.43750000  0.31250000  0.22916667       0.003
   0.47916667  0.31250000  0.22916667       0.003
   0.35416667  0.35416667  0.22916667       0.002
   0.39583333  0.35416667  0.22916667       0.003
   0.43750000  0.35416667  0.22916667       0.003
   0.47916667  0.35416667  0.22916667       0.003
   0.39583333  0.39583333  0.22916667       0.002
   0.43750000  0.39583333  0.22916667       0.003
   0.47916667  0.39583333  0.22916667       0.003
   0.43750000  0.43750000  0.22916667       0.002
   0.47916667  0.43750000  0.22916667       0.003
   0.47916667  0.47916667  0.22916667       0.002
   0.27083333  0.27083333  0.27083333       0.001
   0.31250000  0.27083333  0.27083333       0.002
   0.35416667  0.27083333  0.27083333       0.002
   0.39583333  0.27083333  0.27083333       0.002
   0.43750000  0.27083333  0.27083333       0.002
   0.47916667  0.27083333  0.27083333       0.002
   0.31250000  0.31250000  0.27083333       0.002
   0.35416667  0.31250000  0.27083333       0.003
   0.39583333  0.31250000  0.27083333       0.003
   0.43750000  0.31250000  0.27083333       0.003
   0.47916667  0.31250000  0.27083333       0.003
   0.35416667  0.35416667  0.27083333       0.002
   0.39583333  0.35416667  0.27083333       0.003
   0.43750000  0.35416667  0.27083333       0.003
   0.47916667  0.35416667  0.27083333       0.003
   0.39583333  0.39583333  0.27083333       0.002
   0.43750000  0.39583333  0.27083333       0.003
   0.47916667  0.39583333  0.27083333       0.003
   0.43750000  0.43750000  0.27083333       0.002
   0.47916667  0.43750000  0.27083333       0.003
   0.47916667  0.47916667  0.27083333       0.002
   0.31250000  0.31250000  0.31250000       0.001
   0.35416667  0.31250000  0.31250000       0.002
   0.39583333  0.31250000  0.31250000       0.002
   0.43750000  0.31250000  0.31250000       0.002
   0.47916667  0.31250000  0.31250000       0.002
   0.35416667  0.35416667  0.31250000       0.002
   0.39583333  0.35416667  0.31250000       0.003
   0.43750000  0.35416667  0.31250000       0.003
   0.47916667  0.35416667  0.31250000       0.003
   0.39583333  0.39583333  0.31250000       0.002
   0.43750000  0.39583333  0.31250000       0.003
   0.47916667  0.39583333  0.31250000       0.003
   0.43750000  0.43750000  0.31250000       0.002
   0.47916667  0.43750000  0.31250000       0.003
   0.47916667  0.47916667  0.31250000       0.002
   0.35416667  0.35416667  0.35416667       0.001
   0.39583333  0.35416667  0.35416667       0.002
   0.43750000  0.35416667  0.35416667       0.002
   0.47916667  0.35416667  0.35416667       0.002
   0.39583333  0.39583333  0.35416667       0.002
   0.43750000  0.39583333  0.35416667       0.003
   0.47916667  0.39583333  0.35416667       0.003
   0.43750000  0.43750000  0.35416667       0.002
   0.47916667  0.43750000  0.35416667       0.003
   0.47916667  0.47916667  0.35416667       0.002
   0.39583333  0.39583333  0.39583333       0.001
   0.43750000  0.39583333  0.39583333       0.002
   0.47916667  0.39583333  0.39583333       0.002
   0.43750000  0.43750000  0.39583333       0.002
   0.47916667  0.43750000  0.39583333       0.003
   0.47916667  0.47916667  0.39583333       0.002
   0.43750000  0.43750000  0.43750000       0.001
   0.47916667  0.43750000  0.43750000       0.002
   0.47916667  0.47916667  0.43750000       0.002
   0.47916667  0.47916667  0.47916667       0.001
 
 k-points in reciprocal lattice and weights: 24x24x24                                
   0.02083333  0.02083333  0.02083333       0.001
   0.06250000  0.02083333  0.02083333       0.002
   0.10416667  0.02083333  0.02083333       0.002
   0.14583333  0.02083333  0.02083333       0.002
   0.18750000  0.02083333  0.02083333       0.002
   0.22916667  0.02083333  0.02083333       0.002
   0.27083333  0.02083333  0.02083333       0.002
   0.31250000  0.02083333  0.02083333       0.002
   0.35416667  0.02083333  0.02083333       0.002
   0.39583333  0.02083333  0.02083333       0.002
   0.43750000  0.02083333  0.02083333       0.002
   0.47916667  0.02083333  0.02083333       0.002
   0.06250000  0.06250000  0.02083333       0.002
   0.10416667  0.06250000  0.02083333       0.003
   0.14583333  0.06250000  0.02083333       0.003
   0.18750000  0.06250000  0.02083333       0.003
   0.22916667  0.06250000  0.02083333       0.003
   0.27083333  0.06250000  0.02083333       0.003
   0.31250000  0.06250000  0.02083333       0.003
   0.35416667  0.06250000  0.02083333       0.003
   0.39583333  0.06250000  0.02083333       0.003
   0.43750000  0.06250000  0.02083333       0.003
   0.47916667  0.06250000  0.02083333       0.003
   0.10416667  0.10416667  0.02083333       0.002
   0.14583333  0.10416667  0.02083333       0.003
   0.18750000  0.10416667  0.02083333       0.003
   0.22916667  0.10416667  0.02083333       0.003
   0.27083333  0.10416667  0.02083333       0.003
   0.31250000  0.10416667  0.02083333       0.003
   0.35416667  0.10416667  0.02083333       0.003
   0.39583333  0.10416667  0.02083333       0.003
   0.43750000  0.10416667  0.02083333       0.003
   0.47916667  0.10416667  0.02083333       0.003
   0.14583333  0.14583333  0.02083333       0.002
   0.18750000  0.14583333  0.02083333       0.003
   0.22916667  0.14583333  0.02083333       0.003
   0.27083333  0.14583333  0.02083333       0.003
   0.31250000  0.14583333  0.02083333       0.003
   0.35416667  0.14583333  0.02083333       0.003
   0.39583333  0.14583333  0.02083333       0.003
   0.43750000  0.14583333  0.02083333       0.003
   0.47916667  0.14583333  0.02083333       0.003
   0.18750000  0.18750000  0.02083333       0.002
   0.22916667  0.18750000  0.02083333       0.003
   0.27083333  0.18750000  0.02083333       0.003
   0.31250000  0.18750000  0.02083333       0.003
   0.35416667  0.18750000  0.02083333       0.003
   0.39583333  0.18750000  0.02083333       0.003
   0.43750000  0.18750000  0.02083333       0.003
   0.47916667  0.18750000  0.02083333       0.003
   0.22916667  0.22916667  0.02083333       0.002
   0.27083333  0.22916667  0.02083333       0.003
   0.31250000  0.22916667  0.02083333       0.003
   0.35416667  0.22916667  0.02083333       0.003
   0.39583333  0.22916667  0.02083333       0.003
   0.43750000  0.22916667  0.02083333       0.003
   0.47916667  0.22916667  0.02083333       0.003
   0.27083333  0.27083333  0.02083333       0.002
   0.31250000  0.27083333  0.02083333       0.003
   0.35416667  0.27083333  0.02083333       0.003
   0.39583333  0.27083333  0.02083333       0.003
   0.43750000  0.27083333  0.02083333       0.003
   0.47916667  0.27083333  0.02083333       0.003
   0.31250000  0.31250000  0.02083333       0.002
   0.35416667  0.31250000  0.02083333       0.003
   0.39583333  0.31250000  0.02083333       0.003
   0.43750000  0.31250000  0.02083333       0.003
   0.47916667  0.31250000  0.02083333       0.003
   0.35416667  0.35416667  0.02083333       0.002
   0.39583333  0.35416667  0.02083333       0.003
   0.43750000  0.35416667  0.02083333       0.003
   0.47916667  0.35416667  0.02083333       0.003
   0.39583333  0.39583333  0.02083333       0.002
   0.43750000  0.39583333  0.02083333       0.003
   0.47916667  0.39583333  0.02083333       0.003
   0.43750000  0.43750000  0.02083333       0.002
   0.47916667  0.43750000  0.02083333       0.003
   0.47916667  0.47916667  0.02083333       0.002
   0.06250000  0.06250000  0.06250000       0.001
   0.10416667  0.06250000  0.06250000       0.002
   0.14583333  0.06250000  0.06250000       0.002
   0.18750000  0.06250000  0.06250000       0.002
   0.22916667  0.06250000  0.06250000       0.002
   0.27083333  0.06250000  0.06250000       0.002
   0.31250000  0.06250000  0.06250000       0.002
   0.35416667  0.06250000  0.06250000       0.002
   0.39583333  0.06250000  0.06250000       0.002
   0.43750000  0.06250000  0.06250000       0.002
   0.47916667  0.06250000  0.06250000       0.002
   0.10416667  0.10416667  0.06250000       0.002
   0.14583333  0.10416667  0.06250000       0.003
   0.18750000  0.10416667  0.06250000       0.003
   0.22916667  0.10416667  0.06250000       0.003
   0.27083333  0.10416667  0.06250000       0.003
   0.31250000  0.10416667  0.06250000       0.003
   0.35416667  0.10416667  0.06250000       0.003
   0.39583333  0.10416667  0.06250000       0.003
   0.43750000  0.10416667  0.06250000       0.003
   0.47916667  0.10416667  0.06250000       0.003
   0.14583333  0.14583333  0.06250000       0.002
   0.18750000  0.14583333  0.06250000       0.003
   0.22916667  0.14583333  0.06250000       0.003
   0.27083333  0.14583333  0.06250000       0.003
   0.31250000  0.14583333  0.06250000       0.003
   0.35416667  0.14583333  0.06250000       0.003
   0.39583333  0.14583333  0.06250000       0.003
   0.43750000  0.14583333  0.06250000       0.003
   0.47916667  0.14583333  0.06250000       0.003
   0.18750000  0.18750000  0.06250000       0.002
   0.22916667  0.18750000  0.06250000       0.003
   0.27083333  0.18750000  0.06250000       0.003
   0.31250000  0.18750000  0.06250000       0.003
   0.35416667  0.18750000  0.06250000       0.003
   0.39583333  0.18750000  0.06250000       0.003
   0.43750000  0.18750000  0.06250000       0.003
   0.47916667  0.18750000  0.06250000       0.003
   0.22916667  0.22916667  0.06250000       0.002
   0.27083333  0.22916667  0.06250000       0.003
[...]
      8       9.9002      1.48953
      9      17.0776      0.00000
     10      17.7259      0.00000

 k-point   337 :       0.4375    0.3542    0.3125
  band No.  band energies     occupation 
      1       1.7652      2.00000
      2       2.9894      2.00000
      3       4.5747      2.00000
      4       5.2277      2.00000
      5       6.0615      2.00000
      6       6.7087      2.00000
      7       8.2612      2.00000
      8       9.4419      2.06914
      9      17.3588      0.00000
     10      17.8651      0.00000

 k-point   338 :       0.4792    0.3542    0.3125
  band No.  band energies     occupation 
      1       2.1412      2.00000
      2       2.5494      2.00000
      3       4.9074      2.00000
      4       5.1959      2.00000
      5       6.0273      2.00000
      6       6.3139      2.00000
      7       8.6219      2.00000
      8       9.0154      2.02459
      9      17.6273      0.00000
     10      17.8297      0.00000

 k-point   339 :       0.3958    0.3958    0.3125
  band No.  band energies     occupation 
      1       1.7310      2.00000
      2       3.7595      2.00000
      3       3.7595      2.00000
      4       5.1952      2.00000
      5       6.0283      2.00000
      6       7.4451      2.00000
      7       7.4451      2.00000
      8       9.4101      2.06818
      9      17.3721      0.00000
     10      18.6048      0.00000

 k-point   340 :       0.4375    0.3958    0.3125
  band No.  band energies     occupation 
      1       2.0729      2.00000
      2       3.2918      2.00000
      3       4.0885      2.00000
      4       5.1311      2.00000
      5       5.9605      2.00000
      6       6.9914      2.00000
      7       7.7711      2.00000
      8       8.9525      2.01832
      9      17.6765      0.00000
     10      18.5294      0.00000

 k-point   341 :       0.4792    0.3958    0.3125
  band No.  band energies     occupation 
      1       2.4475      2.00000
      2       2.8541      2.00000
      3       4.4426      2.00000
      4       4.8092      2.00000
      5       6.2143      2.00000
      6       6.5770      2.00000
      7       8.1314      2.00000
      8       8.5256      2.00000
      9      17.9875      0.00000
     10      18.2882      0.00000

 k-point   342 :       0.4375    0.4375    0.3125
  band No.  band energies     occupation 
      1       2.4135      2.00000
      2       3.6256      2.00000
      3       3.6256      2.00000
      4       4.7764      2.00000
      5       6.1811      2.00000
      6       7.3144      2.00000
      7       7.3144      2.00000
      8       8.4932      2.00000
      9      17.9983      0.00000
     10      18.9963      0.00000

 k-point   343 :       0.4792    0.4375    0.3125
  band No.  band energies     occupation 
      1       2.7864      2.00000
      2       3.1909      2.00000
      3       3.9886      2.00000
      4       4.3765      2.00000
      5       6.5109      2.00000
      6       6.8930      2.00000
      7       7.6734      2.00000
      8       8.0665      2.00000
      9      18.3295      0.00000
     10      18.6671      0.00000

 k-point   344 :       0.4792    0.4792    0.3125
  band No.  band energies     occupation 
      1       3.1572      2.00000
      2       3.5586      2.00000
      3       3.5586      2.00000
      4       3.9553      2.00000
      5       6.8602      2.00000
      6       7.2491      2.00000
      7       7.2491      2.00000
      8       7.6410      2.00000
      9      18.6752      0.00000
     10      19.0298      0.00000

 k-point   345 :       0.3542    0.3542    0.3542
  band No.  band energies     occupation 
      1       1.3878      2.00000
      2       4.2211      2.00000
      3       4.2211      2.00000
      4       4.2211      2.00000
      5       7.1230      2.00000
      6       7.1230      2.00000
      7       7.1230      2.00000
      8       9.8697      1.56413
      9      17.7835      0.00000
     10      17.7835      0.00000

 k-point   346 :       0.3958    0.3542    0.3542
  band No.  band energies     occupation 
      1       1.6967      2.00000
      2       3.7259      2.00000
      3       4.5083      2.00000
      4       4.5083      2.00000
      5       6.6441      2.00000
      6       6.6441      2.00000
      7       7.4130      2.00000
      8       9.3797      2.06624
      9      18.0479      0.00000
     10      18.0479      0.00000

 k-point   347 :       0.4375    0.3542    0.3542
  band No.  band energies     occupation 
      1       2.0388      2.00000
      2       3.2582      2.00000
      3       4.8085      2.00000
      4       4.8085      2.00000
      5       6.2157      2.00000
      6       6.2157      2.00000
      7       7.7391      2.00000
      8       8.9207      2.01565
      9      18.2946      0.00000
     10      18.2946      0.00000

 k-point   348 :       0.4792    0.3542    0.3542
  band No.  band energies     occupation 
      1       2.4134      2.00000
      2       2.8202      2.00000
      3       5.0657      2.00000
      4       5.0657      2.00000
      5       5.8944      2.00000
      6       5.8944      2.00000
      7       8.0996      2.00000
      8       8.4947      2.00000
      9      18.4711      0.00000
     10      18.4711      0.00000

 k-point   349 :       0.3958    0.3958    0.3542
  band No.  band energies     occupation 
      1       2.0046      2.00000
      2       4.0216      2.00000
      3       4.0216      2.00000
      4       4.7756      2.00000
      5       6.1829      2.00000
      6       6.9272      2.00000
      7       6.9272      2.00000
      8       8.8890      2.01304
      9      18.3460      0.00000
     10      19.0164      0.00000

 k-point   350 :       0.4375    0.3958    0.3542
  band No.  band energies     occupation 
      1       2.3454      2.00000
      2       3.5584      2.00000
      3       4.3429      2.00000
      4       5.0005      2.00000
      5       5.8276      2.00000
      6       6.4794      2.00000
      7       7.2505      2.00000
      8       8.4293      2.00000
      9      18.6385      0.00000
     10      19.1701      0.00000

 k-point   351 :       0.4792    0.3958    0.3542
  band No.  band energies     occupation 
      1       2.7185      2.00000
      2       3.1233      2.00000
      3       4.6773      2.00000
      4       4.9684      2.00000
      5       5.7936      2.00000
      6       6.0827      2.00000
      7       7.6097      2.00000
      8       8.0031      2.00000
      9      18.9161      0.00000
     10      19.1303      0.00000

 k-point   352 :       0.4375    0.4375    0.3542
  band No.  band energies     occupation 
      1       2.6846      2.00000
      2       3.8882      2.00000
      3       3.8882      2.00000
      4       4.9359      2.00000
      5       5.7600      2.00000
      6       6.7960      2.00000
      7       6.7960      2.00000
      8       7.9709      2.00000
      9      18.9609      0.00000
     10      19.8330      0.00000

 k-point   353 :       0.4792    0.4375    0.3542
  band No.  band energies     occupation 
      1       3.0557      2.00000
      2       3.4576      2.00000
      3       4.2435      2.00000
      4       4.6116      2.00000
      5       6.0161      2.00000
      6       6.3803      2.00000
      7       7.1526      2.00000
      8       7.5449      2.00000
      9      19.2779      0.00000
     10      19.5818      0.00000

 k-point   354 :       0.4792    0.4792    0.3542
  band No.  band energies     occupation 
      1       3.4241      2.00000
      2       3.8215      2.00000
      3       3.8215      2.00000
      4       4.2104      2.00000
      5       6.3472      2.00000
      6       6.7303      2.00000
      7       6.7303      2.00000
      8       7.1199      2.00000
      9      19.6197      0.00000
     10      19.9552      0.00000

 k-point   355 :       0.3958    0.3958    0.3958
  band No.  band energies     occupation 
      1       2.3113      2.00000
      2       4.3096      2.00000
      3       4.3096      2.00000
      4       4.3096      2.00000
      5       6.4469      2.00000
      6       6.4469      2.00000
      7       6.4469      2.00000
      8       8.3975      2.00000
      9      19.3287      0.00000
     10      19.3287      0.00000

 k-point   356 :       0.4375    0.3958    0.3958
  band No.  band energies     occupation 
      1       2.6507      2.00000
      2       3.8547      2.00000
      3       4.6113      2.00000
      4       4.6113      2.00000
      5       6.0167      2.00000
      6       6.0167      2.00000
      7       6.7636      2.00000
      8       7.9389      2.00000
      9      19.5958      0.00000
     10      19.5958      0.00000

 k-point   357 :       0.4792    0.3958    0.3958
  band No.  band energies     occupation 
      1       3.0220      2.00000
      2       3.4239      2.00000
      3       4.8707      2.00000
      4       4.8707      2.00000
      5       5.6930      2.00000
      6       5.6930      2.00000
      7       7.1203      2.00000
      8       7.5127      2.00000
      9      19.7856      0.00000
     10      19.7856      0.00000

 k-point   358 :       0.4375    0.4375    0.3958
  band No.  band energies     occupation 
      1       2.9882      2.00000
      2       4.1770      2.00000
      3       4.1770      2.00000
      4       4.8382      2.00000
      5       5.6593      2.00000
      6       6.3147      2.00000
      7       6.3147      2.00000
      8       7.4803      2.00000
      9      19.9258      0.00000
     10      20.4909      0.00000

 k-point   359 :       0.4792    0.4375    0.3958
  band No.  band energies     occupation 
      1       3.3567      2.00000
      2       3.7544      2.00000
      3       4.5127      2.00000
      4       4.8058      2.00000
      5       5.6254      2.00000
      6       5.9166      2.00000
      7       6.6650      2.00000
      8       7.0550      2.00000
      9      20.2143      0.00000
     10      20.4394      0.00000

 k-point   360 :       0.4792    0.4792    0.3958
  band No.  band energies     occupation 
      1       3.7209      2.00000
      2       4.1106      2.00000
      3       4.1106      2.00000
      4       4.4798      2.00000
      5       5.8831      2.00000
      6       6.2484      2.00000
      7       6.2484      2.00000
      8       6.6321      2.00000
      9      20.5550      0.00000
     10      20.8621      0.00000

 k-point   361 :       0.4375    0.4375    0.4375
  band No.  band energies     occupation 
      1       3.3231      2.00000
      2       4.4796      2.00000
      3       4.4796      2.00000
      4       4.4796      2.00000
      5       5.8833      2.00000
      6       5.8833      2.00000
      7       5.8833      2.00000
      8       7.0224      2.00000
      9      20.8717      0.00000
     10      20.8720      0.00000

 k-point   362 :       0.4792    0.4375    0.4375
  band No.  band energies     occupation 
      1       3.6875      2.00000
      2       4.0772      2.00000
      3       4.7407      2.00000
      4       4.7407      2.00000
      5       5.5579      2.00000
      6       5.5579      2.00000
      7       6.2155      2.00000
      8       6.5994      2.00000
      9      21.0854      0.00000
     10      21.0862      0.00000

 k-point   363 :       0.4792    0.4792    0.4375
  band No.  band energies     occupation 
      1       4.0439      2.00000
      2       4.4138      2.00000
      3       4.4138      2.00000
      4       4.7082      2.00000
      5       5.5240      2.00000
      6       5.8164      2.00000
      7       5.8164      2.00000
      8       6.1824      2.00000
      9      21.4452      0.00000
     10      21.6750      0.00000

 k-point   364 :       0.4792    0.4792    0.4792
  band No.  band energies     occupation 
      1       4.3807      2.00000
      2       4.6756      2.00000
      3       4.6756      2.00000
      4       4.6756      2.00000
      5       5.4900      2.00000
      6       5.4900      2.00000
      7       5.4900      2.00000
      8       5.7830      2.00000
      9      22.2010      0.00000
     10      22.2204      0.00000


--------------------------------------------------------------------------------------------------------


 soft charge-density along one line, spin component           1
         0         1         2         3         4         5         6         7         8         9
 total charge-density along one line
 
 pseudopotential strength for first ion, spin component:           1
  8.383  14.282   0.000  -0.000   0.000   0.000  -0.000   0.000
 14.282  24.334   0.000  -0.000   0.000   0.000  -0.000   0.000
  0.000   0.000   1.999  -0.000  -0.000   5.746  -0.000  -0.000
 -0.000  -0.000  -0.000   1.999  -0.000  -0.000   5.746  -0.000
  0.000   0.000  -0.000  -0.000   1.999  -0.000  -0.000   5.746
  0.000   0.000   5.746  -0.000  -0.000  16.437  -0.000  -0.000
 -0.000  -0.000  -0.000   5.746  -0.000  -0.000  16.437  -0.000
  0.000   0.000  -0.000  -0.000   5.746  -0.000  -0.000  16.437
 total augmentation occupancy for first ion, spin component:           1
  4.410  -1.282  -0.000   0.000   0.000   0.000  -0.000   0.000
 -1.282   0.429  -0.000   0.000   0.000   0.000   0.000  -0.000
  0.000   0.000   1.542   0.000   0.000  -0.129  -0.000  -0.000
 -0.000   0.000  -0.000   1.542   0.000  -0.000  -0.129  -0.000
 -0.000   0.000   0.000   0.000   1.542  -0.000   0.000  -0.129
  0.000  -0.000  -0.129  -0.000  -0.000   0.011  -0.000   0.000
  0.000  -0.000  -0.000  -0.129   0.000   0.000   0.011   0.000
  0.000   0.000  -0.000  -0.000  -0.129   0.000  -0.000   0.011


------------------------ aborting loop because EDIFF is reached ----------------------------------------


    CHARGE:  cpu time    0.1063: real time    0.1063
    FORLOC:  cpu time    0.0001: real time    0.0001
    FORNL :  cpu time    0.1507: real time    0.1507
    STRESS:  cpu time    0.4152: real time    0.4152
    FORCOR:  cpu time    0.0025: real time    0.0025
    FORHAR:  cpu time    0.0005: real time    0.0005
    MIXING:  cpu time    0.0002: real time    0.0002
    OFIELD:  cpu time    0.0000: real time    0.0000

  FORCE on cell =-STRESS in cart. coord.  units (eV):
  Direction    XX          YY          ZZ          XY          YZ          ZX
  --------------------------------------------------------------------------------------
  Alpha Z    -0.97939    -0.97939    -0.97939
  Ewald    -104.24379  -104.24379  -104.24379    -0.00000    -0.00000    -0.00000
  Hartree     0.20657     0.20657     0.20657    -0.00000    -0.00000    -0.00000
  E(xc)     -36.48955   -36.48955   -36.48955     0.00000     0.00000    -0.00000
  Local       4.18779     4.18779     4.18779    -0.00000    -0.00000    -0.00000
  n-local    78.59556    79.67860    83.08902     0.90310     1.94622     0.87189
  augment    -3.64522    -3.64522    -3.64522     0.00000     0.00000    -0.00000
  Kinetic    64.71239    67.06184    71.79435     1.65817    -9.36141    -1.63026
  Fock        0.00000     0.00000     0.00000     0.00000     0.00000     0.00000
  -------------------------------------------------------------------------------------
  Total       7.34701     7.34701     7.34701     0.00000    -0.00000    -0.00000
  in kB     214.52122   214.52122   214.52122     0.00000    -0.00000    -0.00000
  external pressure =      214.52 kB  Pullay stress =        0.00 kB


 VOLUME and BASIS-vectors are now :
 -----------------------------------------------------------------------------
  energy-cutoff  :      300.38
  volume of cell :       54.87
      direct lattice vectors                 reciprocal lattice vectors
     3.800000000  0.000000000  0.000000000     0.263157895  0.000000000  0.000000000
     0.000000000  3.800000000  0.000000000     0.000000000  0.263157895  0.000000000
     0.000000000  0.000000000  3.800000000     0.000000000  0.000000000  0.263157895

  length of vectors
     3.800000000  3.800000000  3.800000000     0.263157895  0.263157895  0.263157895


 FORCES acting on ions
    electron-ion (+dipol)            ewald-force                    non-local-force                 convergence-correction
 -----------------------------------------------------------------------------------------------
   -.165E-14 -.558E-15 -.431E-14   -.366E-15 -.527E-15 -.281E-15   0.339E-20 -.339E-20 -.508E-20   0.209E-14 0.210E-15 -.230E-15
   -.622E-14 -.376E-14 -.224E-13   -.192E-14 0.461E-15 -.267E-15   0.508E-20 0.169E-20 -.169E-20   -.218E-14 -.206E-15 -.271E-15
   -.839E-15 -.448E-14 -.858E-14   0.191E-14 0.375E-15 0.277E-15   -.339E-20 0.678E-20 0.000E+00   0.211E-14 -.256E-15 0.230E-15
   -.688E-14 -.380E-15 0.251E-13   0.360E-15 -.153E-15 0.291E-15   -.339E-20 0.678E-20 0.339E-20   -.215E-14 0.197E-15 0.244E-15
 -----------------------------------------------------------------------------------------------
   -.156E-13 -.919E-14 -.102E-13   -.115E-16 0.156E-15 0.208E-16   0.169E-20 0.119E-19 -.339E-20   -.143E-15 -.554E-16 -.275E-16
 
 
 POSITION                                       TOTAL-FORCE (eV/Angst)
 -----------------------------------------------------------------------------------
      0.00000      0.00000      0.00000        -0.000000     -0.000000     -0.000000
      1.90000      1.90000      0.00000         0.000000     -0.000000      0.000000
      0.00000      1.90000      1.90000         0.000000      0.000000      0.000000
      1.90000      0.00000      1.90000        -0.000000      0.000000     -0.000000
 -----------------------------------------------------------------------------------
    total drift:                               -0.000000     -0.000000     -0.000000


--------------------------------------------------------------------------------------------------------



  FREE ENERGIE OF THE ION-ELECTRON SYSTEM (eV)
  ---------------------------------------------------
  free  energy   TOTEN  =       -14.32651210 eV

  energy  without entropy=      -14.32651210  energy(sigma->0) =      -14.32651210
 


--------------------------------------------------------------------------------------------------------


    POTLOK:  cpu time    0.0041: real time    0.0041


--------------------------------------------------------------------------------------------------------


     LOOP+:  cpu time   18.3325: real time   19.0208
    4ORBIT:  cpu time    0.0000: real time    0.0000

volume of typ            1:    84.1 %
 
total charge     
 
# of ion     s       p       d       tot
----------------------------------------
  1        0.810   1.042   0.272   2.124
  2        0.810   1.041   0.272   2.123
  3        0.810   1.042   0.272   2.124
  4        0.810   1.041   0.272   2.124
------------------------------------------------
tot         3.24    4.17    1.09    8.49
 
 BZINTS: Fermi energy: 10.083926; 12.000000 electrons
         Band energy:  61.238058;  BLOECHL correction: -0.049352

 total amount of memory used by VASP on root node    38458. kBytes
========================================================================

   base      :      30000. kBytes
   nonl-proj :       2172. kBytes
   fftplans  :        174. kBytes
   grid      :        227. kBytes
   one-center:          3. kBytes
   wavefun   :       5882. kBytes
 
  
  
 General timing and accounting informations for this job:
 ========================================================
  
                  Total CPU time used (sec):       21.059
                            User time (sec):       20.859
                          System time (sec):        0.200
                         Elapsed time (sec):       24.244
  
                   Maximum memory used (kb):       50776.
                   Average memory used (kb):           0.
  
                          Minor page faults:        21972
                          Major page faults:           66
                 Voluntary context switches:         1341
