   2   2   1   0
  0.3400133E+02  0.4581563E-09  0.4581563E-09  0.4581563E-09  0.5000000E-15
  1.000000000000000E-004
  CAR 
 unknown system                          
     11.70002351    -32.87658438  301      4.95393993      1.00000000
    -32.877  0.0000E+00  0.0000E+00  0.0000E+00  0.0000E+00
    -32.728  0.0000E+00  0.0000E+00  0.0000E+00  0.0000E+00
    -32.579 -0.1729E-33 -0.3068E-33 -0.2569E-34 -0.4559E-34
    -32.431 -0.5146E-28 -0.6716E-28 -0.7647E-29 -0.9980E-29
    -32.282 -0.3802E-23 -0.4838E-23 -0.5649E-24 -0.7189E-24
    -32.134 -0.9225E-19 -0.1145E-18 -0.1371E-19 -0.1701E-19
    -31.985 -0.7113E-15 -0.8607E-15 -0.1057E-15 -0.1279E-15
    -31.836 -0.1828E-11 -0.2155E-11 -0.2717E-12 -0.3204E-12
    -31.688 -0.1515E-08 -0.1741E-08 -0.2254E-09 -0.2590E-09
    -31.539 -0.3993E-06 -0.4470E-06 -0.5956E-07 -0.6668E-07
    -31.391 -0.3241E-04 -0.3530E-04 -0.4876E-05 -0.5312E-05
    -31.242 -0.7422E-03 -0.7838E-03 -0.1152E-03 -0.1218E-03
    -31.094 -0.3105E-02 -0.3095E-02 -0.5765E-03 -0.5816E-03
    -30.945  0.1504E-01  0.1601E-01  0.1658E-02  0.1797E-02
    -30.796  0.6206E-01  0.6262E-01  0.1088E-01  0.1110E-01
    -30.648  0.4071E-01  0.3948E-01  0.1693E-01  0.1697E-01
    -30.499  0.4735E-03  0.1120E-03  0.1700E-01  0.1699E-01
    -30.351 -0.2040E-02 -0.1969E-02  0.1669E-01  0.1669E-01
    -30.202 -0.1863E-03 -0.1734E-03  0.1667E-01  0.1667E-01
    -30.053 -0.4265E-05 -0.3860E-05  0.1667E-01  0.1667E-01
    -29.905 -0.2913E-07 -0.2567E-07  0.1667E-01  0.1667E-01
    -29.756 -0.6244E-10 -0.5362E-10  0.1667E-01  0.1667E-01
    -29.608 -0.4291E-13 -0.3591E-13  0.1667E-01  0.1667E-01
    -29.459  0.0000E+00  0.0000E+00  0.1667E-01  0.1667E-01
    -29.310  0.0000E+00  0.0000E+00  0.1667E-01  0.1667E-01
    -29.162  0.0000E+00  0.0000E+00  0.1667E-01  0.1667E-01
    -29.013  0.0000E+00  0.0000E+00  0.1667E-01  0.1667E-01
    -28.865  0.0000E+00  0.0000E+00  0.1667E-01  0.1667E-01
    -28.716  0.0000E+00  0.0000E+00  0.1667E-01  0.1667E-01
    -28.568  0.0000E+00  0.0000E+00  0.1667E-01  0.1667E-01
    -28.419  0.0000E+00  0.0000E+00  0.1667E-01  0.1667E-01
    -28.270  0.0000E+00  0.0000E+00  0.1667E-01  0.1667E-01
    -28.122  0.0000E+00  0.0000E+00  0.1667E-01  0.1667E-01
    -27.973  0.0000E+00  0.0000E+00  0.1667E-01  0.1667E-01
    -27.825  0.0000E+00  0.0000E+00  0.1667E-01  0.1667E-01
    -27.676  0.0000E+00  0.0000E+00  0.1667E-01  0.1667E-01
    -27.527  0.0000E+00  0.0000E+00  0.1667E-01  0.1667E-01
    -27.379  0.0000E+00  0.0000E+00  0.1667E-01  0.1667E-01
    -27.230  0.0000E+00  0.0000E+00  0.1667E-01  0.1667E-01
    -27.082  0.0000E+00  0.0000E+00  0.1667E-01  0.1667E-01
    -26.933  0.0000E+00  0.0000E+00  0.1667E-01  0.1667E-01
    -26.784  0.0000E+00  0.0000E+00  0.1667E-01  0.1667E-01
    -26.636  0.0000E+00  0.0000E+00  0.1667E-01  0.1667E-01
    -26.487  0.0000E+00  0.0000E+00  0.1667E-01  0.1667E-01
    -26.339  0.0000E+00  0.0000E+00  0.1667E-01  0.1667E-01
    -26.190  0.0000E+00  0.0000E+00  0.1667E-01  0.1667E-01
    -26.042  0.0000E+00  0.0000E+00  0.1667E-01  0.1667E-01
    -25.893  0.0000E+00  0.0000E+00  0.1667E-01  0.1667E-01
    -25.744  0.0000E+00  0.0000E+00  0.1667E-01  0.1667E-01
    -25.596  0.0000E+00  0.0000E+00  0.1667E-01  0.1667E-01
    -25.447  0.0000E+00  0.0000E+00  0.1667E-01  0.1667E-01
    -25.299  0.0000E+00  0.0000E+00  0.1667E-01  0.1667E-01
    -25.150  0.0000E+00  0.0000E+00  0.1667E-01  0.1667E-01
    -25.001  0.0000E+00  0.0000E+00  0.1667E-01  0.1667E-01
    -24.853  0.0000E+00  0.0000E+00  0.1667E-01  0.1667E-01
    -24.704  0.0000E+00  0.0000E+00  0.1667E-01  0.1667E-01
    -24.556  0.0000E+00  0.0000E+00  0.1667E-01  0.1667E-01
    -24.407  0.0000E+00  0.0000E+00  0.1667E-01  0.1667E-01
    -24.258  0.0000E+00  0.0000E+00  0.1667E-01  0.1667E-01
    -24.110  0.0000E+00  0.0000E+00  0.1667E-01  0.1667E-01
    -23.961  0.0000E+00  0.0000E+00  0.1667E-01  0.1667E-01
    -23.813  0.0000E+00  0.0000E+00  0.1667E-01  0.1667E-01
    -23.664  0.0000E+00  0.0000E+00  0.1667E-01  0.1667E-01
    -23.515  0.0000E+00  0.0000E+00  0.1667E-01  0.1667E-01
    -23.367  0.0000E+00  0.0000E+00  0.1667E-01  0.1667E-01
    -23.218  0.0000E+00  0.0000E+00  0.1667E-01  0.1667E-01
    -23.070  0.0000E+00  0.0000E+00  0.1667E-01  0.1667E-01
    -22.921  0.0000E+00  0.0000E+00  0.1667E-01  0.1667E-01
    -22.773  0.0000E+00  0.0000E+00  0.1667E-01  0.1667E-01
    -22.624  0.0000E+00  0.0000E+00  0.1667E-01  0.1667E-01
    -22.475  0.0000E+00  0.0000E+00  0.1667E-01  0.1667E-01
    -22.327  0.0000E+00  0.0000E+00  0.1667E-01  0.1667E-01
    -22.178  0.0000E+00  0.0000E+00  0.1667E-01  0.1667E-01
    -22.030  0.0000E+00  0.0000E+00  0.1667E-01  0.1667E-01
    -21.881  0.0000E+00  0.0000E+00  0.1667E-01  0.1667E-01
    -21.732  0.0000E+00  0.0000E+00  0.1667E-01  0.1667E-01
    -21.584  0.0000E+00  0.0000E+00  0.1667E-01  0.1667E-01
    -21.435  0.0000E+00  0.0000E+00  0.1667E-01  0.1667E-01
    -21.287  0.0000E+00  0.0000E+00  0.1667E-01  0.1667E-01
    -21.138  0.0000E+00  0.0000E+00  0.1667E-01  0.1667E-01
    -20.989  0.0000E+00  0.0000E+00  0.1667E-01  0.1667E-01
    -20.841  0.0000E+00  0.0000E+00  0.1667E-01  0.1667E-01
    -20.692  0.0000E+00  0.0000E+00  0.1667E-01  0.1667E-01
    -20.544  0.0000E+00  0.0000E+00  0.1667E-01  0.1667E-01
    -20.395  0.0000E+00  0.0000E+00  0.1667E-01  0.1667E-01
    -20.247  0.0000E+00  0.0000E+00  0.1667E-01  0.1667E-01
    -20.098  0.0000E+00  0.0000E+00  0.1667E-01  0.1667E-01
    -19.949  0.0000E+00  0.0000E+00  0.1667E-01  0.1667E-01
    -19.801  0.0000E+00  0.0000E+00  0.1667E-01  0.1667E-01
    -19.652  0.0000E+00  0.0000E+00  0.1667E-01  0.1667E-01
    -19.504  0.0000E+00  0.0000E+00  0.1667E-01  0.1667E-01
    -19.355  0.0000E+00  0.0000E+00  0.1667E-01  0.1667E-01
    -19.206  0.0000E+00  0.0000E+00  0.1667E-01  0.1667E-01
    -19.058  0.0000E+00  0.0000E+00  0.1667E-01  0.1667E-01
    -18.909  0.0000E+00  0.0000E+00  0.1667E-01  0.1667E-01
    -18.761  0.0000E+00  0.0000E+00  0.1667E-01  0.1667E-01
    -18.612  0.0000E+00  0.0000E+00  0.1667E-01  0.1667E-01
    -18.463  0.0000E+00  0.0000E+00  0.1667E-01  0.1667E-01
    -18.315  0.0000E+00  0.0000E+00  0.1667E-01  0.1667E-01
    -18.166  0.0000E+00  0.0000E+00  0.1667E-01  0.1667E-01
    -18.018  0.0000E+00  0.0000E+00  0.1667E-01  0.1667E-01
    -17.869  0.0000E+00  0.0000E+00  0.1667E-01  0.1667E-01
    -17.721  0.0000E+00  0.0000E+00  0.1667E-01  0.1667E-01
    -17.572  0.0000E+00  0.0000E+00  0.1667E-01  0.1667E-01
    -17.423  0.0000E+00  0.0000E+00  0.1667E-01  0.1667E-01
    -17.275  0.0000E+00  0.0000E+00  0.1667E-01  0.1667E-01
    -17.126  0.0000E+00  0.0000E+00  0.1667E-01  0.1667E-01
    -16.978  0.0000E+00  0.0000E+00  0.1667E-01  0.1667E-01
    -16.829  0.0000E+00  0.0000E+00  0.1667E-01  0.1667E-01
    -16.680  0.0000E+00  0.0000E+00  0.1667E-01  0.1667E-01
    -16.532  0.0000E+00  0.0000E+00  0.1667E-01  0.1667E-01
    -16.383  0.0000E+00  0.0000E+00  0.1667E-01  0.1667E-01
    -16.235  0.0000E+00  0.0000E+00  0.1667E-01  0.1667E-01
    -16.086  0.0000E+00  0.0000E+00  0.1667E-01  0.1667E-01
    -15.937  0.0000E+00  0.0000E+00  0.1667E-01  0.1667E-01
    -15.789  0.0000E+00  0.0000E+00  0.1667E-01  0.1667E-01
    -15.640  0.0000E+00  0.0000E+00  0.1667E-01  0.1667E-01
    -15.492  0.0000E+00  0.0000E+00  0.1667E-01  0.1667E-01
    -15.343  0.0000E+00  0.0000E+00  0.1667E-01  0.1667E-01
    -15.195  0.0000E+00  0.0000E+00  0.1667E-01  0.1667E-01
    -15.046  0.0000E+00  0.0000E+00  0.1667E-01  0.1667E-01
    -14.897  0.0000E+00  0.0000E+00  0.1667E-01  0.1667E-01
    -14.749  0.0000E+00  0.0000E+00  0.1667E-01  0.1667E-01
    -14.600  0.0000E+00  0.0000E+00  0.1667E-01  0.1667E-01
    -14.452  0.0000E+00  0.0000E+00  0.1667E-01  0.1667E-01
    -14.303  0.0000E+00  0.0000E+00  0.1667E-01  0.1667E-01
    -14.154  0.0000E+00  0.0000E+00  0.1667E-01  0.1667E-01
    -14.006  0.0000E+00  0.0000E+00  0.1667E-01  0.1667E-01
    -13.857  0.0000E+00  0.0000E+00  0.1667E-01  0.1667E-01
    -13.709  0.0000E+00  0.0000E+00  0.1667E-01  0.1667E-01
    -13.560  0.0000E+00  0.0000E+00  0.1667E-01  0.1667E-01
    -13.411  0.0000E+00  0.0000E+00  0.1667E-01  0.1667E-01
    -13.263  0.0000E+00  0.0000E+00  0.1667E-01  0.1667E-01
    -13.114  0.0000E+00  0.0000E+00  0.1667E-01  0.1667E-01
    -12.966  0.0000E+00  0.0000E+00  0.1667E-01  0.1667E-01
    -12.817  0.0000E+00  0.0000E+00  0.1667E-01  0.1667E-01
    -12.669 -0.1179E-33 -0.2007E-33  0.1667E-01  0.1667E-01
    -12.520 -0.2356E-28 -0.3805E-28  0.1667E-01  0.1667E-01
    -12.371 -0.1490E-23 -0.2299E-23  0.1667E-01  0.1667E-01
    -12.223 -0.3163E-19 -0.4665E-19  0.1667E-01  0.1667E-01
    -12.074 -0.2200E-15 -0.3099E-15  0.1667E-01  0.1667E-01
    -11.926 -0.5277E-12 -0.7108E-12  0.1667E-01  0.1667E-01
    -11.777 -0.4292E-09 -0.5527E-09  0.1667E-01  0.1667E-01
    -11.628 -0.1179E-06 -0.1452E-06  0.1667E-01  0.1667E-01
    -11.480 -0.1080E-04 -0.1269E-04  0.1667E-01  0.1666E-01
    -11.331 -0.3147E-03 -0.3519E-03  0.1662E-01  0.1661E-01
    -11.183 -0.2463E-02 -0.2582E-02  0.1625E-01  0.1623E-01
    -11.034  0.7885E-03  0.1525E-02  0.1637E-01  0.1646E-01
    -10.885  0.4245E-01  0.4510E-01  0.2268E-01  0.2316E-01
    -10.737  0.1154E+00  0.1178E+00  0.3983E-01  0.4066E-01
    -10.588  0.1354E+00  0.1336E+00  0.5995E-01  0.6051E-01
    -10.440  0.5106E-01  0.4758E-01  0.6754E-01  0.6758E-01
    -10.291 -0.2911E-02 -0.3414E-02  0.6711E-01  0.6708E-01
    -10.143 -0.2724E-02 -0.2549E-02  0.6670E-01  0.6670E-01
     -9.994 -0.2301E-03 -0.2045E-03  0.6667E-01  0.6667E-01
     -9.845 -0.5568E-05 -0.4743E-05  0.6667E-01  0.6667E-01
     -9.697 -0.4366E-07 -0.3571E-07  0.6667E-01  0.6667E-01
     -9.548 -0.1144E-09 -0.8997E-10  0.6667E-01  0.6667E-01
     -9.400 -0.1011E-12 -0.7639E-13  0.6667E-01  0.6667E-01
     -9.251 -0.2855E-16 -0.2098E-16  0.6667E-01  0.6667E-01
     -9.102  0.0000E+00  0.0000E+00  0.6667E-01  0.6667E-01
     -8.954  0.0000E+00  0.0000E+00  0.6667E-01  0.6667E-01
     -8.805  0.0000E+00  0.0000E+00  0.6667E-01  0.6667E-01
     -8.657  0.0000E+00  0.0000E+00  0.6667E-01  0.6667E-01
     -8.508  0.0000E+00  0.0000E+00  0.6667E-01  0.6667E-01
     -8.359  0.0000E+00  0.0000E+00  0.6667E-01  0.6667E-01
     -8.211  0.0000E+00  0.0000E+00  0.6667E-01  0.6667E-01
     -8.062  0.0000E+00  0.0000E+00  0.6667E-01  0.6667E-01
     -7.914  0.0000E+00  0.0000E+00  0.6667E-01  0.6667E-01
     -7.765  0.0000E+00  0.0000E+00  0.6667E-01  0.6667E-01
     -7.617  0.0000E+00  0.0000E+00  0.6667E-01  0.6667E-01
     -7.468  0.0000E+00  0.0000E+00  0.6667E-01  0.6667E-01
     -7.319  0.0000E+00  0.0000E+00  0.6667E-01  0.6667E-01
     -7.171  0.0000E+00  0.0000E+00  0.6667E-01  0.6667E-01
     -7.022  0.0000E+00  0.0000E+00  0.6667E-01  0.6667E-01
     -6.874  0.0000E+00  0.0000E+00  0.6667E-01  0.6667E-01
     -6.725  0.0000E+00  0.0000E+00  0.6667E-01  0.6667E-01
     -6.576  0.0000E+00  0.0000E+00  0.6667E-01  0.6667E-01
     -6.428  0.0000E+00  0.0000E+00  0.6667E-01  0.6667E-01
     -6.279  0.0000E+00  0.0000E+00  0.6667E-01  0.6667E-01
     -6.131  0.0000E+00  0.0000E+00  0.6667E-01  0.6667E-01
     -5.982  0.0000E+00  0.0000E+00  0.6667E-01  0.6667E-01
     -5.833  0.0000E+00  0.0000E+00  0.6667E-01  0.6667E-01
     -5.685  0.0000E+00  0.0000E+00  0.6667E-01  0.6667E-01
     -5.536  0.0000E+00  0.0000E+00  0.6667E-01  0.6667E-01
     -5.388  0.0000E+00  0.0000E+00  0.6667E-01  0.6667E-01
     -5.239  0.0000E+00  0.0000E+00  0.6667E-01  0.6667E-01
     -5.090  0.0000E+00  0.0000E+00  0.6667E-01  0.6667E-01
     -4.942  0.0000E+00  0.0000E+00  0.6667E-01  0.6667E-01
     -4.793  0.0000E+00  0.0000E+00  0.6667E-01  0.6667E-01
     -4.645  0.0000E+00  0.0000E+00  0.6667E-01  0.6667E-01
     -4.496  0.0000E+00  0.0000E+00  0.6667E-01  0.6667E-01
     -4.348  0.0000E+00  0.0000E+00  0.6667E-01  0.6667E-01
     -4.199  0.0000E+00  0.0000E+00  0.6667E-01  0.6667E-01
     -4.050  0.0000E+00  0.0000E+00  0.6667E-01  0.6667E-01
     -3.902  0.0000E+00  0.0000E+00  0.6667E-01  0.6667E-01
     -3.753  0.0000E+00  0.0000E+00  0.6667E-01  0.6667E-01
     -3.605  0.0000E+00  0.0000E+00  0.6667E-01  0.6667E-01
     -3.456  0.0000E+00  0.0000E+00  0.6667E-01  0.6667E-01
     -3.307  0.0000E+00  0.0000E+00  0.6667E-01  0.6667E-01
     -3.159  0.0000E+00  0.0000E+00  0.6667E-01  0.6667E-01
     -3.010  0.0000E+00  0.0000E+00  0.6667E-01  0.6667E-01
     -2.862  0.0000E+00  0.0000E+00  0.6667E-01  0.6667E-01
     -2.713  0.0000E+00  0.0000E+00  0.6667E-01  0.6667E-01
     -2.564  0.0000E+00  0.0000E+00  0.6667E-01  0.6667E-01
     -2.416 -0.2515E-35 -0.3737E-35  0.6667E-01  0.6667E-01
     -2.267 -0.1070E-29 -0.1473E-29  0.6667E-01  0.6667E-01
     -2.119 -0.8593E-25 -0.1142E-24  0.6667E-01  0.6667E-01
     -1.970 -0.2313E-20 -0.2967E-20  0.6667E-01  0.6667E-01
     -1.822 -0.2048E-16 -0.2532E-16  0.6667E-01  0.6667E-01
     -1.673 -0.6139E-13 -0.7364E-13  0.6667E-01  0.6667E-01
     -1.524 -0.6267E-10 -0.7280E-10  0.6667E-01  0.6667E-01
     -1.376 -0.2173E-07 -0.2448E-07  0.6667E-01  0.6667E-01
     -1.227 -0.2579E-05 -0.2820E-05  0.6667E-01  0.6667E-01
     -1.079 -0.1050E-03 -0.1116E-03  0.6665E-01  0.6665E-01
     -0.930 -0.1406E-02 -0.1454E-02  0.6644E-01  0.6643E-01
     -0.781 -0.4270E-02 -0.4219E-02  0.6581E-01  0.6581E-01
     -0.633  0.1868E-01  0.1963E-01  0.6858E-01  0.6872E-01
     -0.484  0.1095E+00  0.1113E+00  0.8486E-01  0.8527E-01
     -0.336  0.2075E+00  0.2083E+00  0.1157E+00  0.1162E+00
     -0.187  0.1864E+00  0.1848E+00  0.1434E+00  0.1437E+00
     -0.038  0.5558E-01  0.5387E-01  0.1517E+00  0.1517E+00
      0.110 -0.4344E-02 -0.4500E-02  0.1510E+00  0.1510E+00
      0.259 -0.1729E-02 -0.1616E-02  0.1507E+00  0.1508E+00
      0.407  0.1558E-02  0.1597E-02  0.1510E+00  0.1510E+00
      0.556  0.1836E-02  0.1825E-02  0.1513E+00  0.1513E+00
      0.704  0.2094E-02  0.2161E-02  0.1516E+00  0.1516E+00
      0.853  0.2728E-02  0.2735E-02  0.1520E+00  0.1520E+00
      1.002  0.2504E-02  0.2490E-02  0.1523E+00  0.1524E+00
      1.150  0.3007E-02  0.3112E-02  0.1528E+00  0.1528E+00
      1.299  0.4285E-02  0.4357E-02  0.1534E+00  0.1535E+00
      1.447  0.6053E-02  0.6180E-02  0.1543E+00  0.1544E+00
      1.596  0.9439E-02  0.9671E-02  0.1557E+00  0.1558E+00
      1.745  0.1107E-01  0.1101E-01  0.1574E+00  0.1575E+00
      1.893  0.9631E-02  0.9552E-02  0.1588E+00  0.1589E+00
      2.042  0.1076E-01  0.1091E-01  0.1604E+00  0.1605E+00
      2.190  0.1244E-01  0.1246E-01  0.1623E+00  0.1624E+00
      2.339  0.1213E-01  0.1204E-01  0.1641E+00  0.1642E+00
      2.488  0.9542E-02  0.9343E-02  0.1655E+00  0.1655E+00
      2.636  0.5985E-02  0.5774E-02  0.1664E+00  0.1664E+00
      2.785  0.2123E-02  0.1867E-02  0.1667E+00  0.1667E+00
      2.933  0.4567E-03  0.5065E-03  0.1667E+00  0.1668E+00
      3.082  0.2231E-02  0.2443E-02  0.1671E+00  0.1671E+00
      3.230  0.3800E-02  0.3921E-02  0.1676E+00  0.1677E+00
      3.379  0.5226E-02  0.5449E-02  0.1684E+00  0.1685E+00
      3.528  0.7150E-02  0.7305E-02  0.1695E+00  0.1696E+00
      3.676  0.8273E-02  0.8366E-02  0.1707E+00  0.1708E+00
      3.825  0.8758E-02  0.8742E-02  0.1720E+00  0.1721E+00
      3.973  0.8885E-02  0.8999E-02  0.1733E+00  0.1735E+00
      4.122  0.1014E-01  0.1014E-01  0.1748E+00  0.1750E+00
      4.271  0.9368E-02  0.9320E-02  0.1762E+00  0.1764E+00
      4.419  0.9709E-02  0.9744E-02  0.1777E+00  0.1778E+00
      4.568  0.8649E-02  0.8344E-02  0.1790E+00  0.1791E+00
      4.716  0.5078E-02  0.4813E-02  0.1797E+00  0.1798E+00
      4.865  0.7531E-02  0.9173E-02  0.1808E+00  0.1811E+00
      5.014  0.3099E-01  0.3448E-01  0.1854E+00  0.1863E+00
      5.162  0.4993E-01  0.4931E-01  0.1929E+00  0.1936E+00
      5.311  0.3557E-01  0.3305E-01  0.1981E+00  0.1985E+00
      5.459  0.2451E-01  0.2396E-01  0.2018E+00  0.2021E+00
      5.608  0.2322E-01  0.2298E-01  0.2052E+00  0.2055E+00
      5.756  0.1793E-01  0.1743E-01  0.2079E+00  0.2081E+00
      5.905  0.1277E-01  0.1253E-01  0.2098E+00  0.2099E+00
      6.054  0.1073E-01  0.1064E-01  0.2114E+00  0.2115E+00
      6.202  0.9933E-02  0.9867E-02  0.2129E+00  0.2130E+00
      6.351  0.8307E-02  0.8230E-02  0.2141E+00  0.2142E+00
      6.499  0.8167E-02  0.8219E-02  0.2153E+00  0.2154E+00
      6.648  0.7566E-02  0.7487E-02  0.2164E+00  0.2165E+00
      6.797  0.7468E-02  0.7614E-02  0.2175E+00  0.2177E+00
      6.945  0.1000E-01  0.1024E-01  0.2190E+00  0.2192E+00
      7.094  0.1309E-01  0.1335E-01  0.2210E+00  0.2212E+00
      7.242  0.1624E-01  0.1642E-01  0.2234E+00  0.2236E+00
      7.391  0.1643E-01  0.1631E-01  0.2258E+00  0.2260E+00
      7.540  0.1686E-01  0.1715E-01  0.2283E+00  0.2286E+00
      7.688  0.2002E-01  0.2003E-01  0.2313E+00  0.2315E+00
      7.837  0.1830E-01  0.1807E-01  0.2340E+00  0.2342E+00
      7.985  0.1845E-01  0.1869E-01  0.2368E+00  0.2370E+00
      8.134  0.2303E-01  0.2323E-01  0.2402E+00  0.2405E+00
      8.282  0.2482E-01  0.2483E-01  0.2439E+00  0.2442E+00
      8.431  0.2632E-01  0.2643E-01  0.2478E+00  0.2481E+00
      8.580  0.2933E-01  0.2954E-01  0.2521E+00  0.2525E+00
      8.728  0.3240E-01  0.3229E-01  0.2570E+00  0.2573E+00
      8.877  0.3283E-01  0.3283E-01  0.2618E+00  0.2621E+00
      9.025  0.4262E-01  0.4335E-01  0.2682E+00  0.2686E+00
      9.174  0.5726E-01  0.5789E-01  0.2767E+00  0.2772E+00
      9.323  0.6680E-01  0.6583E-01  0.2866E+00  0.2870E+00
      9.471  0.5639E-01  0.5523E-01  0.2950E+00  0.2952E+00
      9.620  0.2858E-01  0.2856E-01  0.2992E+00  0.2994E+00
      9.768  0.6289E-02  0.5415E-02  0.3002E+00  0.3002E+00
      9.917 -0.6197E-03 -0.1063E-02  0.3001E+00  0.3001E+00
     10.066 -0.4524E-03 -0.4067E-03  0.3000E+00  0.3000E+00
     10.214 -0.5033E-04 -0.3146E-04  0.3000E+00  0.3000E+00
     10.363 -0.1712E-05 -0.7554E-06  0.3000E+00  0.3000E+00
     10.511 -0.1897E-07 -0.5970E-08  0.3000E+00  0.3000E+00
     10.660 -0.6920E-10 -0.1572E-10  0.3000E+00  0.3000E+00
     10.808 -0.8345E-13 -0.1382E-13  0.3000E+00  0.3000E+00
     10.957 -0.3325E-16 -0.3600E-17  0.3000E+00  0.3000E+00
     11.106  0.0000E+00  0.0000E+00  0.3000E+00  0.3000E+00
     11.254  0.0000E+00  0.0000E+00  0.3000E+00  0.3000E+00
     11.403  0.0000E+00  0.0000E+00  0.3000E+00  0.3000E+00
     11.551  0.0000E+00  0.0000E+00  0.3000E+00  0.3000E+00
     11.700  0.0000E+00  0.0000E+00  0.3000E+00  0.3000E+00
     11.70002351    -32.87658438  301      4.95393993      1.00000000
    -32.877  0.0000E+00  0.0000E+00  0.0000E+00  0.0000E+00  0.0000E+00  0.0000E+00  0.0000E+00  0.0000E+00  0.0000E+00  0.0000E+00  0.0000E+00  0.0000E+00  0.0000E+00  0.0000E+00  0.0000E+00  0.0000E+00  0.0000E+00  0.0000E+00  0.0000E+00  0.0000E+00  0.0000E+00  0.0000E+00  0.0000E+00  0.0000E+00  0.0000E+00  0.0000E+00  0.0000E+00  0.0000E+00  0.0000E+00  0.0000E+00  0.0000E+00  0.0000E+00
    -32.728  0.0000E+00  0.0000E+00  0.0000E+00  0.0000E+00  0.0000E+00  0.0000E+00  0.0000E+00  0.0000E+00  0.0000E+00  0.0000E+00  0.0000E+00  0.0000E+00  0.0000E+00  0.0000E+00  0.0000E+00  0.0000E+00  0.0000E+00  0.0000E+00  0.0000E+00  0.0000E+00  0.0000E+00  0.0000E+00  0.0000E+00  0.0000E+00  0.0000E+00  0.0000E+00  0.0000E+00  0.0000E+00  0.0000E+00  0.0000E+00  0.0000E+00  0.0000E+00
    -32.579 -0.1018E-31 -0.1807E-31 -0.1100E-38 -0.1506E-38 -0.3043E-38 -0.4358E-38 -0.1043E-38 -0.1476E-38 -0.3979E-39 -0.6512E-39 -0.3755E-39 -0.5742E-39 -0.1788E-39 -0.4536E-39 -0.2302E-39 -0.3348E-39 -0.8718E-41 -0.2907E-40 -0.9752E-40 -0.2880E-39 -0.1382E-40 -0.2039E-40 -0.1124E-39 -0.3828E-39 -0.2546E-40 -0.4707E-40 -0.4514E-40 -0.9894E-40 -0.9289E-41 -0.1545E-40 -0.3357E-40 -0.6421E-40
    -32.431 -0.3031E-26 -0.3955E-26 -0.2458E-33 -0.3222E-33 -0.7161E-33 -0.9386E-33 -0.2415E-33 -0.3176E-33 -0.1111E-33 -0.1440E-33 -0.9683E-34 -0.1265E-33 -0.7733E-34 -0.1011E-33 -0.5654E-34 -0.7375E-34 -0.5010E-35 -0.6531E-35 -0.4875E-34 -0.6440E-34 -0.3416E-35 -0.4465E-35 -0.6578E-34 -0.8608E-34 -0.7432E-35 -0.1021E-34 -0.1677E-34 -0.2202E-34 -0.2717E-35 -0.3401E-35 -0.1051E-34 -0.1418E-34
    -32.282 -0.2239E-21 -0.2849E-21 -0.1774E-28 -0.2267E-28 -0.5202E-28 -0.6650E-28 -0.1753E-28 -0.2248E-28 -0.8285E-29 -0.1048E-28 -0.7192E-29 -0.9160E-29 -0.5815E-29 -0.7416E-29 -0.4200E-29 -0.5342E-29 -0.3795E-30 -0.4824E-30 -0.3677E-29 -0.4737E-29 -0.2524E-30 -0.3216E-30 -0.4987E-29 -0.6364E-29 -0.5439E-30 -0.7292E-30 -0.1259E-29 -0.1611E-29 -0.2018E-30 -0.2463E-30 -0.7829E-30 -0.1030E-29
    -32.134 -0.5433E-17 -0.6742E-17 -0.4202E-24 -0.5237E-24 -0.1241E-23 -0.1547E-23 -0.4179E-24 -0.5225E-24 -0.2028E-24 -0.2501E-24 -0.1753E-24 -0.2177E-24 -0.1435E-24 -0.1785E-24 -0.1024E-24 -0.1270E-24 -0.9436E-26 -0.1170E-25 -0.9105E-25 -0.1144E-24 -0.6122E-26 -0.7605E-26 -0.1241E-24 -0.1544E-24 -0.1308E-25 -0.1711E-25 -0.3102E-25 -0.3871E-25 -0.4919E-26 -0.5858E-26 -0.1915E-25 -0.2457E-25
    -31.985 -0.4189E-13 -0.5069E-13 -0.3162E-20 -0.3840E-20 -0.9405E-20 -0.1143E-19 -0.3165E-20 -0.3856E-20 -0.1578E-20 -0.1895E-20 -0.1358E-20 -0.1643E-20 -0.1125E-20 -0.1366E-20 -0.7935E-21 -0.9585E-21 -0.7443E-22 -0.9014E-22 -0.7154E-21 -0.8775E-21 -0.4715E-22 -0.5714E-22 -0.9797E-21 -0.1190E-20 -0.9999E-22 -0.1276E-21 -0.2428E-21 -0.2953E-21 -0.3810E-22 -0.4424E-22 -0.1488E-21 -0.1861E-21
    -31.836 -0.1076E-09 -0.1269E-09 -0.7923E-17 -0.9383E-17 -0.2374E-16 -0.2812E-16 -0.7978E-17 -0.9483E-17 -0.4084E-17 -0.4785E-17 -0.3500E-17 -0.4130E-17 -0.2939E-17 -0.3474E-17 -0.2044E-17 -0.2409E-17 -0.1959E-18 -0.2308E-18 -0.1875E-17 -0.2238E-17 -0.1210E-18 -0.1428E-18 -0.2580E-17 -0.3050E-17 -0.2548E-18 -0.3171E-18 -0.6330E-18 -0.7505E-18 -0.9831E-19 -0.1114E-18 -0.3850E-18 -0.4695E-18
    -31.688 -0.8924E-07 -0.1025E-06 -0.6402E-14 -0.7390E-14 -0.1933E-13 -0.2231E-13 -0.6489E-14 -0.7518E-14 -0.3409E-14 -0.3893E-14 -0.2910E-14 -0.3346E-14 -0.2475E-14 -0.2851E-14 -0.1699E-14 -0.1951E-14 -0.1661E-15 -0.1907E-15 -0.1584E-14 -0.1842E-14 -0.1001E-15 -0.1151E-15 -0.2189E-14 -0.2522E-14 -0.2096E-15 -0.2543E-15 -0.5321E-15 -0.6149E-15 -0.8183E-16 -0.9037E-16 -0.3213E-15 -0.3818E-15
    -31.539 -0.2352E-04 -0.2633E-04 -0.1644E-11 -0.1848E-11 -0.5000E-11 -0.5624E-11 -0.1677E-11 -0.1893E-11 -0.9044E-12 -0.1006E-11 -0.7685E-12 -0.8610E-12 -0.6625E-12 -0.7435E-12 -0.4487E-12 -0.5020E-12 -0.4476E-13 -0.5005E-13 -0.4251E-12 -0.4816E-12 -0.2631E-13 -0.2947E-13 -0.5900E-12 -0.6623E-12 -0.5481E-13 -0.6481E-13 -0.1422E-12 -0.1600E-12 -0.2165E-13 -0.2330E-13 -0.8522E-13 -0.9863E-13
    -31.391 -0.1909E-02 -0.2079E-02 -0.1298E-09 -0.1420E-09 -0.3980E-09 -0.4356E-09 -0.1333E-09 -0.1464E-09 -0.7386E-10 -0.7994E-10 -0.6248E-10 -0.6811E-10 -0.5461E-10 -0.5964E-10 -0.3647E-10 -0.3970E-10 -0.3715E-11 -0.4042E-11 -0.3514E-10 -0.3874E-10 -0.2128E-11 -0.2320E-11 -0.4899E-10 -0.5352E-10 -0.4416E-11 -0.5083E-11 -0.1170E-10 -0.1281E-10 -0.1764E-11 -0.1848E-11 -0.6960E-11 -0.7837E-11
    -31.242 -0.4371E-01 -0.4617E-01 -0.2880E-08 -0.3054E-08 -0.8915E-08 -0.9461E-08 -0.2983E-08 -0.3176E-08 -0.1702E-08 -0.1786E-08 -0.1432E-08 -0.1514E-08 -0.1272E-08 -0.1347E-08 -0.8357E-09 -0.8821E-09 -0.8716E-10 -0.9196E-10 -0.8210E-09 -0.8777E-09 -0.4852E-10 -0.5127E-10 -0.1150E-08 -0.1218E-08 -0.1003E-09 -0.1120E-09 -0.2718E-09 -0.2887E-09 -0.4055E-10 -0.4121E-10 -0.1604E-09 -0.1751E-09
    -31.094 -0.1829E+00 -0.1823E+00 -0.1135E-07 -0.1133E-07 -0.3578E-07 -0.3579E-07 -0.1194E-07 -0.1198E-07 -0.7190E-08 -0.7123E-08 -0.5998E-08 -0.5983E-08 -0.5482E-08 -0.5486E-08 -0.3496E-08 -0.3482E-08 -0.3805E-09 -0.3795E-09 -0.3558E-08 -0.3594E-08 -0.2011E-09 -0.2005E-09 -0.5023E-08 -0.5030E-08 -0.4140E-09 -0.4363E-09 -0.1167E-08 -0.1171E-08 -0.1708E-09 -0.1640E-09 -0.6782E-09 -0.6990E-09
    -30.945  0.8856E+00  0.9430E+00  0.5884E-07  0.6282E-07  0.1817E-06  0.1942E-06  0.6082E-07  0.6523E-07  0.3444E-07  0.3645E-07  0.2903E-07  0.3094E-07  0.2565E-07  0.2741E-07  0.1694E-07  0.1803E-07  0.1754E-08  0.1868E-08  0.1654E-07  0.1785E-07  0.9847E-09  0.1049E-08  0.2314E-07  0.2474E-07  0.2036E-08  0.2291E-08  0.5486E-08  0.5879E-08  0.8207E-09  0.8412E-09  0.3245E-08  0.3573E-08
    -30.796  0.3655E+01  0.3688E+01  0.2297E-06  0.2328E-06  0.7213E-06  0.7315E-06  0.2408E-06  0.2451E-06  0.1434E-06  0.1437E-06  0.1198E-06  0.1210E-06  0.1089E-06  0.1102E-06  0.6984E-07  0.7043E-07  0.7541E-08  0.7602E-08  0.7060E-07  0.7211E-07  0.4026E-08  0.4065E-08  0.9953E-07  0.1007E-06  0.8300E-08  0.8859E-08  0.2320E-07  0.2354E-07  0.3408E-08  0.3312E-08  0.1352E-07  0.1410E-07
    -30.648  0.2398E+01  0.2326E+01  0.1446E-06  0.1408E-06  0.4598E-06  0.4483E-06  0.1532E-06  0.1499E-06  0.9452E-07  0.9111E-07  0.7851E-07  0.7622E-07  0.7283E-07  0.7086E-07  0.4573E-07  0.4432E-07  0.5086E-08  0.4930E-08  0.4738E-07  0.4653E-07  0.2620E-08  0.2543E-08  0.6715E-07  0.6535E-07  0.5399E-08  0.5541E-08  0.1547E-07  0.1509E-07  0.2244E-08  0.2098E-08  0.8926E-08  0.8949E-08
    -30.499  0.2790E-01  0.6607E-02  0.3570E-09 -0.8829E-09  0.2423E-08 -0.1548E-08  0.7415E-09 -0.5803E-09  0.1194E-08  0.3490E-09  0.8840E-09  0.1878E-09  0.1154E-08  0.4986E-09  0.5051E-09  0.9961E-10  0.9014E-10  0.4382E-10  0.7875E-09  0.3621E-09  0.2564E-10  0.2588E-11  0.1193E-08  0.5839E-09  0.5347E-10  0.6544E-11  0.2347E-09  0.9585E-10  0.2799E-10  0.7969E-11  0.1155E-09  0.3672E-10
    -30.351 -0.1201E+00 -0.1160E+00 -0.7211E-08 -0.6990E-08 -0.2296E-07 -0.2228E-07 -0.7651E-08 -0.7450E-08 -0.4739E-08 -0.4546E-08 -0.3933E-08 -0.3800E-08 -0.3658E-08 -0.3542E-08 -0.2290E-08 -0.2210E-08 -0.2557E-09 -0.2467E-09 -0.2381E-08 -0.2327E-08 -0.1312E-09 -0.1267E-09 -0.3375E-08 -0.3270E-08 -0.2703E-09 -0.2761E-09 -0.7766E-09 -0.7540E-09 -0.1125E-09 -0.1047E-09 -0.4476E-09 -0.4466E-09
    -30.202 -0.1097E-01 -0.1022E-01 -0.6341E-09 -0.5931E-09 -0.2043E-08 -0.1913E-08 -0.6794E-09 -0.6384E-09 -0.4343E-09 -0.4018E-09 -0.3584E-09 -0.3340E-09 -0.3397E-09 -0.3172E-09 -0.2085E-09 -0.1940E-09 -0.2392E-10 -0.2226E-10 -0.2218E-09 -0.2090E-09 -0.1188E-10 -0.1107E-10 -0.3159E-09 -0.2951E-09 -0.2452E-10 -0.2417E-10 -0.7192E-10 -0.6733E-10 -0.1031E-10 -0.9255E-11 -0.4108E-10 -0.3952E-10
    -30.053 -0.2512E-03 -0.2274E-03 -0.1410E-10 -0.1282E-10 -0.4583E-10 -0.4171E-10 -0.1522E-10 -0.1390E-10 -0.9966E-11 -0.8963E-11 -0.8189E-11 -0.7418E-11 -0.7878E-11 -0.7151E-11 -0.4761E-11 -0.4306E-11 -0.5580E-12 -0.5045E-12 -0.5155E-11 -0.4721E-11 -0.2702E-12 -0.2448E-12 -0.7368E-11 -0.6689E-11 -0.5588E-12 -0.5354E-12 -0.1664E-11 -0.1514E-11 -0.2366E-12 -0.2066E-12 -0.9440E-12 -0.8827E-12
    -29.905 -0.1716E-05 -0.1512E-05 -0.9363E-13 -0.8289E-13 -0.3071E-12 -0.2722E-12 -0.1018E-12 -0.9060E-13 -0.6818E-13 -0.5970E-13 -0.5580E-13 -0.4921E-13 -0.5443E-13 -0.4811E-13 -0.3241E-13 -0.2854E-13 -0.3875E-14 -0.3412E-14 -0.3569E-13 -0.3183E-13 -0.1834E-14 -0.1618E-14 -0.5116E-13 -0.4523E-13 -0.3801E-14 -0.3546E-14 -0.1147E-13 -0.1016E-13 -0.1619E-14 -0.1377E-14 -0.6467E-14 -0.5887E-14
    -29.756 -0.3678E-08 -0.3158E-08 -0.1953E-15 -0.1685E-15 -0.6461E-15 -0.5581E-15 -0.2140E-15 -0.1855E-15 -0.1463E-15 -0.1248E-15 -0.1193E-15 -0.1025E-15 -0.1179E-15 -0.1016E-15 -0.6921E-16 -0.5939E-16 -0.8436E-17 -0.7237E-17 -0.7747E-16 -0.6732E-16 -0.3903E-17 -0.3356E-17 -0.1114E-15 -0.9594E-16 -0.8115E-17 -0.7378E-17 -0.2480E-16 -0.2141E-16 -0.3476E-17 -0.2881E-17 -0.1390E-16 -0.1233E-16
    -29.608 -0.2527E-11 -0.2115E-11 -0.1307E-18 -0.1099E-18 -0.4360E-18 -0.3671E-18 -0.1442E-18 -0.1219E-18 -0.1006E-18 -0.8367E-19 -0.8170E-19 -0.6843E-19 -0.8187E-19 -0.6873E-19 -0.4737E-19 -0.3961E-19 -0.5884E-20 -0.4921E-20 -0.5389E-19 -0.4564E-19 -0.2663E-20 -0.2232E-20 -0.7768E-19 -0.6522E-19 -0.5557E-20 -0.4924E-20 -0.1718E-19 -0.1446E-19 -0.2392E-20 -0.1933E-20 -0.9571E-20 -0.8274E-20
    -29.459  0.0000E+00  0.0000E+00  0.0000E+00  0.0000E+00  0.0000E+00  0.0000E+00  0.0000E+00  0.0000E+00  0.0000E+00  0.0000E+00  0.0000E+00  0.0000E+00  0.0000E+00  0.0000E+00  0.0000E+00  0.0000E+00  0.0000E+00  0.0000E+00  0.0000E+00  0.0000E+00  0.0000E+00  0.0000E+00  0.0000E+00  0.0000E+00  0.0000E+00  0.0000E+00  0.0000E+00  0.0000E+00  0.0000E+00  0.0000E+00  0.0000E+00  0.0000E+00
    -29.310  0.0000E+00  0.0000E+00  0.0000E+00  0.0000E+00  0.0000E+00  0.0000E+00  0.0000E+00  0.0000E+00  0.0000E+00  0.0000E+00  0.0000E+00  0.0000E+00  0.0000E+00  0.0000E+00  0.0000E+00  0.0000E+00  0.0000E+00  0.0000E+00  0.0000E+00  0.0000E+00  0.0000E+00  0.0000E+00  0.0000E+00  0.0000E+00  0.0000E+00  0.0000E+00  0.0000E+00  0.0000E+00  0.0000E+00  0.0000E+00  0.0000E+00  0.0000E+00
    -29.162  0.0000E+00  0.0000E+00  0.0000E+00  0.0000E+00  0.0000E+00  0.0000E+00  0.0000E+00  0.0000E+00  0.0000E+00  0.0000E+00  0.0000E+00  0.0000E+00  0.0000E+00  0.0000E+00  0.0000E+00  0.0000E+00  0.0000E+00  0.0000E+00  0.0000E+00  0.0000E+00  0.0000E+00  0.0000E+00  0.0000E+00  0.0000E+00  0.0000E+00  0.0000E+00  0.0000E+00  0.0000E+00  0.0000E+00  0.0000E+00  0.0000E+00  0.0000E+00
    -29.013  0.0000E+00  0.0000E+00  0.0000E+00  0.0000E+00  0.0000E+00  0.0000E+00  0.0000E+00  0.0000E+00  0.0000E+00  0.0000E+00  0.0000E+00  0.0000E+00  0.0000E+00  0.0000E+00  0.0000E+00  0.0000E+00  0.0000E+00  0.0000E+00  0.0000E+00  0.0000E+00  0.0000E+00  0.0000E+00  0.0000E+00  0.0000E+00  0.0000E+00  0.0000E+00  0.0000E+00  0.0000E+00  0.0000E+00  0.0000E+00  0.0000E+00  0.0000E+00
    -28.865  0.0000E+00  0.0000E+00  0.0000E+00  0.0000E+00  0.0000E+00  0.0000E+00  0.0000E+00  0.0000E+00  0.0000E+00  0.0000E+00  0.0000E+00  0.0000E+00  0.0000E+00  0.0000E+00  0.0000E+00  0.0000E+00  0.0000E+00  0.0000E+00  0.0000E+00  0.0000E+00  0.0000E+00  0.0000E+00  0.0000E+00  0.0000E+00  0.0000E+00  0.0000E+00  0.0000E+00  0.0000E+00  0.0000E+00  0.0000E+00  0.0000E+00  0.0000E+00
    -28.716  0.0000E+00  0.0000E+00  0.0000E+00  0.0000E+00  0.0000E+00  0.0000E+00  0.0000E+00  0.0000E+00  0.0000E+00  0.0000E+00  0.0000E+00  0.0000E+00  0.0000E+00  0.0000E+00  0.0000E+00  0.0000E+00  0.0000E+00  0.0000E+00  0.0000E+00  0.0000E+00  0.0000E+00  0.0000E+00  0.0000E+00  0.0000E+00  0.0000E+00  0.0000E+00  0.0000E+00  0.0000E+00  0.0000E+00  0.0000E+00  0.0000E+00  0.0000E+00