    2    2   60    2
  0.3400133E+02  0.4581563E-09  0.4581563E-09  0.4581563E-09  0.5000000E-15
  1.000000000000000E-004
  CAR 
 unknown system                          
   22  145   18
 
  0.3742002E-15  0.3742002E-15  0.3742002E-15  0.2441406E-03
   1      -30.846988    -30.850375
   2      -10.553383    -10.558819
   3      -10.553383    -10.558811
   4      -10.553376    -10.558811
   5       -0.667420     -0.669093
   6       -0.667420     -0.669093
   7       -0.478605     -0.493535
   8       -0.478605     -0.481805
   9       -0.478603     -0.481805
  10       -0.478464     -0.481805
  11        6.666101      6.651475
  12        6.666103      6.651475
  13        6.666103      6.651478
  14        7.789110      7.782787
  15        7.789148      7.782816
  16        7.789220      7.782990
  17        7.821057      7.800256
  18        8.358060      8.350639
 
  0.6250000E-01  0.3747003E-15  0.3747003E-15  0.1953125E-02
   1      -30.846439    -30.849827
   2      -10.570409    -10.575872
   3      -10.556698    -10.562137
   4      -10.556691    -10.562129
   5       -0.652436     -0.654095
   6       -0.652435     -0.654095
   7       -0.473673     -0.476889
   8       -0.470965     -0.474138
   9       -0.470963     -0.474137
  10       -0.406405     -0.421432
  11        6.455890      6.440621
  12        6.650111      6.635701
  13        6.650113      6.635704
  14        7.543702      7.536647
  15        7.543792      7.536712
  16        7.760994      7.751349
  17        8.000807      7.984119
  18        8.615740      8.608992
 
  0.1250000E+00  0.3816392E-15  0.3816392E-15  0.1953125E-02
   1      -30.844879    -30.848263
   2      -10.618299    -10.623857
   3      -10.566099    -10.571548
   4      -10.566092    -10.571541
   5       -0.609156     -0.610778
   6       -0.609156     -0.610778
   7       -0.461962     -0.465199
   8       -0.449383     -0.452477
   9       -0.449381     -0.452477
  10       -0.195544     -0.210462
  11        6.013238      5.997426
  12        6.523662      6.510759
  13        6.523667      6.510765
  14        7.286268      7.277381
  15        7.286330      7.277434
  16        7.677451      7.666501
  17        8.368884      8.354456
  18        8.987973      8.981959
 
  0.1875000E+00  0.3885781E-15  0.3885781E-15  0.1953125E-02
   1      -30.842526    -30.845905
   2      -10.688315    -10.694008
   3      -10.580091    -10.585557
   4      -10.580085    -10.585550
   5       -0.543132     -0.544692
   6       -0.543131     -0.544692
   7       -0.442693     -0.445943
   8       -0.415494     -0.418470
   9       -0.415492     -0.418470
  10        0.138834      0.124053
  11        5.497628      5.481786
  12        6.199969      6.188973
  13        6.199971      6.188979
  14        7.286325      7.275405
  15        7.286363      7.275445
  16        7.589849      7.577633
  17        8.754436      8.741742
  18        9.296240      9.290794
 
  0.2500000E+00  0.3608225E-15  0.3608225E-15  0.1953125E-02
   1      -30.839821    -30.843197
   2      -10.768545    -10.774386
   3      -10.596504    -10.601989
   4      -10.596498    -10.601981
   5       -0.463991     -0.465472
   6       -0.463991     -0.465471
   7       -0.417982     -0.421214
   8       -0.378170     -0.381003
   9       -0.378168     -0.381003
  10        0.572694      0.557999
  11        4.963443      4.947955
  12        5.810531      5.800230
  13        5.810536      5.800232
  14        7.451428      7.439859
  15        7.451463      7.439876
  16        7.542025      7.528587
  17        9.096273      9.088241
  18        9.524105      9.513978
 
  0.3125000E+00  0.3608225E-15  0.3608225E-15  0.1953125E-02
   1      -30.837073    -30.840444
   2      -10.846351    -10.852331
   3      -10.612787    -10.618290
   4      -10.612781    -10.618283
   5       -0.387827     -0.391000
   6       -0.380742     -0.382135
   7       -0.380742     -0.382134
   8       -0.339434     -0.342117
   9       -0.339433     -0.342117
  10        1.074780      1.059980
  11        4.436840      4.422082
  12        5.456848      5.446718
  13        5.456856      5.446719
  14        7.567770      7.553201
  15        7.701706      7.690116
  16        7.701786      7.690188
  17        9.373752      9.363801
  18        9.600581      9.611688
 
  0.3750000E+00  0.3608225E-15  0.3608225E-15  0.1953125E-02
   1      -30.834744    -30.838110
   2      -10.910564    -10.916656
   3      -10.626502    -10.632021
   4      -10.626496    -10.632014
   5       -0.358514     -0.361600
   6       -0.310947     -0.312942
   7       -0.310946     -0.312938
   8       -0.302492     -0.304360
   9       -0.302491     -0.304358
  10        1.605752      1.590409
  11        3.932036      3.918503
  12        5.180154      5.170022
  13        5.180163      5.170025
  14        7.688139      7.672539
  15        8.002591      7.991398
  16        8.002658      7.991462
  17        9.403290      9.397422
  18        9.433102      9.427887
 
  0.4375000E+00  0.3608225E-15  0.3608225E-15  0.1953125E-02
   1      -30.833179    -30.836544
   2      -10.952615    -10.958777
   3      -10.635617    -10.641147
   4      -10.635611    -10.641139
   5       -0.335888     -0.338893
   6       -0.285693     -0.288136
   7       -0.285691     -0.288134
   8       -0.254090     -0.255354
   9       -0.254088     -0.255353
  10        2.106964      2.090046
  11        3.470757      3.459346
  12        5.004231      4.994059
  13        5.004242      4.994063
  14        7.895322      7.878762
  15        8.316669      8.305953
  16        8.316674      8.305976
  17        9.151715      9.144165
  18        9.159351      9.164641
 
  0.5000000E+00  0.3608225E-15  0.3608225E-15  0.9765625E-03
   1      -30.832651    -30.836014
   2      -10.967248    -10.973434
   3      -10.638812    -10.644345
   4      -10.638806    -10.644338
   5       -0.328865     -0.331837
   6       -0.278041     -0.280470
   7       -0.278040     -0.280468
   8       -0.236089     -0.237311
   9       -0.236087     -0.237311
  10        2.385256      2.365893
  11        3.210690      3.201939
  12        4.943835      4.933643
  13        4.943846      4.933647
  14        8.041620      8.024344
  15        8.508311      8.497787
  16        8.508831      8.497939
  17        8.980917      8.973114
  18        8.990801      8.980454
 
  0.6250000E-01  0.6250000E-01  0.3742002E-15  0.1464844E-02
   1      -30.846257    -30.849643
   2      -10.573539    -10.579008
   3      -10.558941    -10.564384
   4      -10.558936    -10.564378
   5       -0.662802     -0.664463
   6       -0.639619     -0.641672
   7       -0.486415     -0.489675
   8       -0.461970     -0.465112
   9       -0.461969     -0.465112
  10       -0.375121     -0.389734
  11        6.507509      6.491469
  12        6.595336      6.581102
  13        6.595339      6.581106
  14        7.121540      7.114198
  15        7.913571      7.906963
  16        7.913617      7.907067
  17        8.005454      7.986533
  18        8.376266      8.366426
 
  0.1250000E+00  0.6250000E-01  0.3712308E-15  0.5859375E-02
   1      -30.845036    -30.848420
   2      -10.609373    -10.614911
   3      -10.567333    -10.572794
   4      -10.566310    -10.571757
   5       -0.643312     -0.644949
   6       -0.605673     -0.607930
   7       -0.487037     -0.490344
   8       -0.440993     -0.444070
   9       -0.438970     -0.442034
  10       -0.200053     -0.214326
  11        6.164665      6.148786
  12        6.491680      6.479454
  13        6.505790      6.492132
  14        6.820550      6.810108
  15        7.778001      7.770337
  16        7.898892      7.889120
  17        8.309462      8.294811
  18        8.664341      8.657605
 
  0.1875000E+00  0.6250000E-01  0.3885781E-15  0.5859375E-02
   1      -30.842973    -30.846354
   2      -10.670357    -10.676013
   3      -10.580569    -10.586048
   4      -10.578583    -10.584044
   5       -0.597463     -0.599053
   6       -0.543721     -0.545779
   7       -0.475804     -0.479131
   8       -0.412286     -0.415277
   9       -0.406034     -0.408979
  10        0.096535      0.082270
  11        5.654765      5.639642
  12        6.118154      6.106886
  13        6.307540      6.295068
  14        6.913046      6.900579
  15        7.650543      7.641434
  16        7.810925      7.800008
  17        8.673549      8.660853
  18        9.036490      9.044742
 
  0.2500000E+00  0.6250000E-01  0.3747003E-15  0.5859375E-02
   1      -30.840387    -30.843762
   2      -10.745174    -10.750972
   3      -10.596542    -10.602040
   4      -10.594562    -10.600041
   5       -0.530037     -0.531560
   6       -0.465143     -0.467013
   7       -0.452491     -0.455739
   8       -0.379651     -0.382531
   9       -0.368054     -0.370858
  10        0.495151      0.480852
  11        5.101703      5.087093
  12        5.753890      5.742414
  13        6.000450      5.989057
  14        7.097428      7.084955
  15        7.703152      7.692945
  16        7.738973      7.726764
  17        9.014504      9.003842
  18        9.327291      9.342450
 
  0.3125000E+00  0.6250000E-01  0.3608225E-15  0.5859375E-02
   1      -30.837650    -30.841022
   2      -10.821700    -10.827637
   3      -10.612805    -10.618322
   4      -10.611809    -10.617310
   5       -0.450164     -0.451605
   6       -0.421805     -0.425058
   7       -0.382150     -0.383741
   8       -0.344709     -0.347468
   9       -0.330618     -0.333278
  10        0.969972      0.955586
  11        4.558232      4.544021
  12        5.440161      5.428741
  13        5.663763      5.652961
  14        7.314893      7.302673
  15        7.750826      7.737408
  16        7.885715      7.875129
  17        9.300089      9.290205
  18        9.507225      9.492799
 
  0.3750000E+00  0.6250000E-01  0.3608225E-15  0.5859375E-02
   1      -30.835198    -30.838565
   2      -10.888604    -10.894659
   3      -10.627704    -10.633226
   4      -10.626893    -10.632424
   5       -0.385941     -0.389096
   6       -0.368740     -0.370100
   7       -0.315916     -0.318424
   8       -0.310612     -0.312178
   9       -0.299251     -0.301783
  10        1.487591      1.472881
  11        4.041819      4.028253
  12        5.196387      5.185133
  13        5.362595      5.352088
  14        7.523818      7.511166
  15        7.910548      7.896843
  16        8.141283      8.130729
  17        9.368209      9.359970
  18        9.523518      9.474649
 
  0.4375000E+00  0.6250000E-01  0.3608225E-15  0.5859375E-02
   1      -30.833380    -30.836746
   2      -10.936705    -10.942841
   3      -10.639857    -10.645396
   4      -10.636707    -10.642247
   5       -0.351828     -0.354874
   6       -0.299214     -0.300618
   7       -0.294863     -0.297420
   8       -0.277129     -0.279455
   9       -0.265220     -0.266547
  10        2.005344      1.989647
  11        3.559013      3.546764
  12        5.040012      5.028880
  13        5.135833      5.125497
  14        7.738128      7.724380
  15        8.200209      8.187174
  16        8.414670      8.404349
  17        9.115624      9.108227
  18        9.184977      9.174712
 
  0.5000000E+00  0.6250000E-01  0.3608225E-15  0.5859375E-02
   1      -30.832511    -30.835874
   2      -10.959829    -10.966004
   3      -10.646476    -10.652026
   4      -10.640835    -10.646376
   5       -0.331479     -0.334461
   6       -0.284883     -0.287379
   7       -0.275046     -0.277418
   8       -0.252853     -0.254144
   9       -0.248783     -0.250062
  10        2.424044      2.405553
  11        3.168371      3.159132
  12        4.981322      4.970160
  13        5.007954      4.997765
  14        7.965458      7.950674
  15        8.487168      8.474810
  16        8.517809      8.506942
  17        8.876183      8.864126
  18        9.001650      8.979479
 
 -0.4375000E+00  0.6250000E-01  0.3608225E-15  0.5859375E-02
   1      -30.832692    -30.836054
   2      -10.955097    -10.961264
   3      -10.646590    -10.652144
   4      -10.638670    -10.644205
   5       -0.332194     -0.335187
   6       -0.284660     -0.286844
   7       -0.283231     -0.285690
   8       -0.275244     -0.276857
   9       -0.236271     -0.237489
  10        2.318677      2.301267
  11        3.270165      3.259817
  12        4.993775      4.983760
  13        5.021473      5.010079
  14        7.971160      7.955992
  15        8.249554      8.238518
  16        8.617807      8.606677
  17        8.821119      8.810926
  18        9.194110      9.181425
 
 -0.3750000E+00  0.6250000E-01  0.3608225E-15  0.5859375E-02
   1      -30.833906    -30.837271
   2      -10.923123    -10.929235
   3      -10.640160    -10.645710
   4      -10.630525    -10.636048
   5       -0.353747     -0.356809
   6       -0.334012     -0.335415
   7       -0.305721     -0.308273
   8       -0.287707     -0.290218
   9       -0.259669     -0.260922
  10        1.843131      1.827806
  11        3.716175      3.703457
  12        5.098011      5.088212
  13        5.152255      5.140475
  14        7.799694      7.785358
  15        7.902965      7.891245
  16        8.407132      8.396230
  17        9.093790      9.085694
  18        9.475423      9.511909
 
 -0.3125000E+00  0.6250000E-01  0.3330669E-15  0.5859375E-02
   1      -30.835968    -30.839337
   2      -10.867935    -10.873952
   3      -10.628097    -10.633634
   4      -10.617584    -10.623090
   5       -0.409166     -0.410686
   6       -0.384797     -0.387953
   7       -0.338244     -0.340919
   8       -0.314241     -0.315572
   9       -0.307406     -0.309996
  10        1.315700      1.301072
  11        4.220107      4.206238
  12        5.315525      5.305971
  13        5.357965      5.345744
  14        7.572831      7.560475
  15        7.697134      7.683875
  16        8.108109      8.096979
  17        9.385772      9.410271
  18        9.458380      9.454037
 
 -0.2500000E+00  0.6250000E-01  0.3608225E-15  0.5859375E-02
   1      -30.838567    -30.841940
   2      -10.796818    -10.802708
   3      -10.612125    -10.617644
   4      -10.601759    -10.607246
   5       -0.489753     -0.491393
   6       -0.417373     -0.420625
   7       -0.390113     -0.391530
   8       -0.375770     -0.378594
   9       -0.337919     -0.340619
  10        0.803354      0.788913
  11        4.753874      4.739292
  12        5.616023      5.603401
  13        5.633467      5.624149
  14        7.285529      7.272760
  15        7.695085      7.682949
  16        7.841637      7.830419
  17        9.209290      9.200809
  18        9.446423      9.439531
 
 -0.1875000E+00  0.6250000E-01  0.3469447E-15  0.5859375E-02
   1      -30.841290    -30.844667
   2      -10.719828    -10.725576
   3      -10.594573    -10.600071
   4      -10.585423    -10.590891
   5       -0.563592     -0.565369
   6       -0.472752     -0.474258
   7       -0.444177     -0.447468
   8       -0.413285     -0.416249
   9       -0.374751     -0.377585
  10        0.345891      0.331438
  11        5.304805      5.289658
  12        5.898024      5.885124
  13        6.033683      6.024508
  14        7.053465      7.040513
  15        7.641848      7.630720
  16        7.770755      7.759874
  17        8.909305      8.898666
  18        9.223676      9.210960
 
 -0.1250000E+00  0.6250000E-01  0.3885781E-15  0.5859375E-02
   1      -30.843735    -30.847117
   2      -10.648845    -10.654458
   3      -10.577981    -10.583456
   4      -10.571082    -10.576534
   5       -0.618729     -0.620613
   6       -0.550840     -0.552421
   7       -0.463378     -0.466661
   8       -0.444968     -0.448045
   9       -0.412137     -0.415105
  10       -0.024665     -0.039219
  11        5.840469      5.824666
  12        6.172108      6.159161
  13        6.485970      6.476208
  14        6.890273      6.877987
  15        7.538774      7.528534
  16        7.871275      7.860959
  17        8.573744      8.561052
  18        8.906371      8.900414
 
 -0.6250000E-01  0.6250000E-01  0.3885781E-15  0.2929688E-02
   1      -30.845549    -30.848933
   2      -10.595948    -10.601458
   3      -10.564606    -10.570060
   4      -10.560964    -10.566407
   5       -0.648648     -0.650494
   6       -0.613324     -0.614957
   7       -0.473170     -0.476418
   8       -0.464816     -0.467967
   9       -0.446356     -0.449445
  10       -0.282998     -0.297755
  11        6.262786      6.246644
  12        6.434346      6.421123
  13        6.710000      6.695397
  14        7.050366      7.043122
  15        7.550815      7.542149
  16        7.884607      7.873919
  17        8.241235      8.227512
  18        8.641026      8.630755
 
  0.1250000E+00  0.1250000E+00  0.3742002E-15  0.1464844E-02
   1      -30.844190    -30.847574
   2      -10.627542    -10.633109
   3      -10.574618    -10.580089
   4      -10.574613    -10.580084
   5       -0.649772     -0.651399
   6       -0.597301     -0.600277
   7       -0.507582     -0.511011
   8       -0.416350     -0.419335
   9       -0.416349     -0.419335
  10       -0.050258     -0.063682
  11        6.163996      6.155822
  12        6.198377      6.180684
  13        6.472136      6.458392
  14        6.472142      6.458399
  15        8.194838      8.188040
  16        8.194895      8.188098
  17        8.383500      8.367580
  18        8.414487      8.407722
 
  0.1875000E+00  0.1250000E+00  0.3747003E-15  0.5859375E-02
   1      -30.842492    -30.845873
   2      -10.672788    -10.678443
   3      -10.586774    -10.592270
   4      -10.586349    -10.591832
   5       -0.627194     -0.628788
   6       -0.558498     -0.561413
   7       -0.514496     -0.518009
   8       -0.386370     -0.389253
   9       -0.384607     -0.387478
  10        0.213085      0.199839
  11        5.632305      5.622481
  12        5.935311      5.918449
  13        6.379764      6.366502
  14        6.576418      6.562847
  15        8.075032      8.067181
  16        8.213883      8.205049
  17        8.678490      8.665810
  18        8.750684      8.744515
 
  0.2500000E+00  0.1250000E+00  0.3816392E-15  0.5859375E-02
   1      -30.840201    -30.843578
   2      -10.734709    -10.740485
   3      -10.602170    -10.607673
   4      -10.601905    -10.607423
   5       -0.579775     -0.581316
   6       -0.506196     -0.509720
   7       -0.491990     -0.494526
   8       -0.354915     -0.357695
   9       -0.348874     -0.351612
  10        0.566513      0.553182
  11        5.086582      5.075267
  12        5.648350      5.632423
  13        6.187473      6.175112
  14        6.773393      6.760268
  15        8.015009      8.006120
  16        8.145151      8.135087
  17        8.988291      8.977450
  18        9.103754      9.097918
 
  0.3125000E+00  0.1250000E+00  0.3885781E-15  0.5859375E-02
   1      -30.837637    -30.841008
   2      -10.801859    -10.807762
   3      -10.620901    -10.626430
   4      -10.617660    -10.623197
   5       -0.512556     -0.514029
   6       -0.481446     -0.484956
   7       -0.415675     -0.417762
   8       -0.324191     -0.326878
   9       -0.314181     -0.316786
  10        0.990578      0.977156
  11        4.567224      4.554804
  12        5.402143      5.387079
  13        5.916705      5.905196
  14        7.003431      6.990945
  15        8.102686      8.091345
  16        8.110173      8.100568
  17        9.259171      9.249486
  18        9.335891      9.335694
 
  0.3750000E+00  0.1250000E+00  0.3469447E-15  0.5859375E-02
   1      -30.835208    -30.838576
   2      -10.863771    -10.869787
   3      -10.639916    -10.645475
   4      -10.631652    -10.637203
   5       -0.445419     -0.448823
   6       -0.434236     -0.435632
   7       -0.348007     -0.349754
   8       -0.299665     -0.302283
   9       -0.284923     -0.287415
  10        1.460946      1.447453
  11        4.081953      4.068838
  12        5.217506      5.203241
  13        5.629017      5.618104
  14        7.244628      7.232740
  15        8.157982      8.145454
  16        8.308711      8.298909
  17        9.310355      9.322995
  18        9.462182      9.462452
 
  0.4375000E+00  0.1250000E+00  0.3608225E-15  0.5859375E-02
   1      -30.833262    -30.836626
   2      -10.911651    -10.917751
   3      -10.656301    -10.661887
   4      -10.641795    -10.647353
   5       -0.401545     -0.404788
   6       -0.355613     -0.356936
   7       -0.304776     -0.306308
   8       -0.285116     -0.287706
   9       -0.266313     -0.268725
  10        1.950575      1.936895
  11        3.624794      3.611522
  12        5.103753      5.090091
  13        5.376877      5.366377
  14        7.482753      7.470983
  15        8.348547      8.335413
  16        8.538228      8.528495
  17        9.076587      9.068760
  18        9.161806      9.152188
 
  0.5000000E+00  0.1250000E+00  0.3608225E-15  0.5859375E-02
   1      -30.832130    -30.835492
   2      -10.939190    -10.945335
   3      -10.667549    -10.673157
   4      -10.646612    -10.652170
   5       -0.359467     -0.362535
   6       -0.295791     -0.297263
   7       -0.290449     -0.291788
   8       -0.285426     -0.288002
   9       -0.260841     -0.263151
  10        2.434050      2.419512
  11        3.180636      3.168204
  12        5.054900      5.041428
  13        5.195276      5.185111
  14        7.744536      7.732422
  15        8.533812      8.520784
  16        8.543933      8.533651
  17        8.898063      8.894082
  18        9.004586      9.018864
 
 -0.4375000E+00  0.1250000E+00  0.3330669E-15  0.5859375E-02
   1      -30.831967    -30.835329
   2      -10.942950    -10.949099
   3      -10.671886    -10.677508
   4      -10.645393    -10.650943
   5       -0.332577     -0.335559
   6       -0.322417     -0.323869
   7       -0.293884     -0.296503
   8       -0.273557     -0.275963
   9       -0.244737     -0.245978
  10        2.659103      2.641771
  11        2.970553      2.961035
  12        5.057046      5.043204
  13        5.107040      5.097202
  14        8.034167      8.021996
  15        8.217338      8.205824
  16        8.378115      8.365781
  17        9.061883      9.054855
  18        9.268202      9.219609
 
 -0.3750000E+00  0.1250000E+00  0.3608225E-15  0.5859375E-02
   1      -30.832804    -30.836168
   2      -10.922600    -10.928711
   3      -10.668528    -10.674152
   4      -10.638329    -10.643864
   5       -0.377105     -0.378641
   6       -0.344040     -0.347077
   7       -0.295481     -0.298005
   8       -0.289839     -0.292428
   9       -0.236860     -0.238072
  10        2.187712      2.173194
  11        3.428518      3.416271
  12        5.102144      5.087541
  13        5.125350      5.115870
  14        7.850281      7.838105
  15        8.061651      8.049783
  16        8.585655      8.574372
  17        8.901662      8.891751
  18        9.460391      9.456298
 
 -0.3125000E+00  0.1250000E+00  0.3608225E-15  0.5859375E-02
   1      -30.834518    -30.837885
   2      -10.880981    -10.887016
   3      -10.657724    -10.663338
   4      -10.626444    -10.631960
   5       -0.446487     -0.448147
   6       -0.377830     -0.381001
   7       -0.326871     -0.329516
   8       -0.289171     -0.291734
   9       -0.263204     -0.264464
  10        1.668795      1.654744
  11        3.931588      3.918875
  12        5.190495      5.175096
  13        5.253724      5.244646
  14        7.509535      7.496602
  15        8.029417      8.018338
  16        8.556970      8.546356
  17        9.023485      9.014052
  18        9.584701      9.560112
 
 -0.2500000E+00  0.1250000E+00  0.3608225E-15  0.5859375E-02
   1      -30.836831    -30.840202
   2      -10.823856    -10.829788
   3      -10.640758    -10.646349
   4      -10.611492    -10.616988
   5       -0.516343     -0.518157
   6       -0.412036     -0.415317
   7       -0.363098     -0.365877
   8       -0.319444     -0.320784
   9       -0.304225     -0.306818
  10        1.154090      1.140121
  11        4.468539      4.455732
  12        5.320553      5.304541
  13        5.486031      5.477399
  14        7.218072      7.204476
  15        8.072955      8.062311
  16        8.250381      8.240004
  17        9.254702      9.293455
  18        9.387880      9.382634
 
 -0.1875000E+00  0.1250000E+00  0.3608225E-15  0.5859375E-02
   1      -30.839396    -30.842770
   2      -10.759564    -10.765379
   3      -10.619780    -10.625339
   4      -10.595709    -10.601185
   5       -0.574395     -0.576351
   6       -0.439459     -0.442795
   7       -0.398314     -0.401214
   8       -0.394707     -0.396144
   9       -0.333144     -0.335828
  10        0.679564      0.665520
  11        5.037493      5.024868
  12        5.483133      5.466681
  13        5.806953      5.798814
  14        6.990075      6.975941
  15        7.957590      7.946174
  16        8.157391      8.147947
  17        9.043654      9.035505
  18        9.174661      9.168161
 
 -0.1250000E+00  0.1250000E+00  0.3469447E-15  0.2929688E-02
   1      -30.841826    -30.845205
   2      -10.698030    -10.703731
   3      -10.597622    -10.603140
   4      -10.581509    -10.586970
   5       -0.610415     -0.612438
   6       -0.476385     -0.477900
   7       -0.456880     -0.460211
   8       -0.427485     -0.430497
   9       -0.371167     -0.373984
  10        0.277295      0.263075
  11        5.609454      5.597967
  12        5.675203      5.657695
  13        6.185038      6.177348
  14        6.843042      6.828524
  15        7.726425      7.715433
  16        8.120042      8.110054
  17        8.874179      8.863485
  18        8.891566      8.883793
 
  0.1875000E+00  0.1875000E+00  0.3742002E-15  0.1464844E-02
   1      -30.841188    -30.844567
   2      -10.699447    -10.705151
   3      -10.597737    -10.603251
   4      -10.597733    -10.603245
   5       -0.630017     -0.631592
   6       -0.553139     -0.556322
   7       -0.541245     -0.544923
   8       -0.355056     -0.357822
   9       -0.355055     -0.357822
  10        0.439849      0.427178
  11        5.277393      5.268202
  12        5.886671      5.868006
  13        6.406400      6.392954
  14        6.406407      6.392962
  15        8.483464      8.475728
  16        8.512958      8.506278
  17        8.512984      8.506352
  18        8.782555      8.769387
 
  0.2500000E+00  0.1875000E+00  0.3677614E-15  0.5859375E-02
   1      -30.839269    -30.842644
   2      -10.744050    -10.749846
   3      -10.612691    -10.618223
   4      -10.611721    -10.617262
   5       -0.605999     -0.607535
   6       -0.550871     -0.554654
   7       -0.516731     -0.519678
   8       -0.323450     -0.326106
   9       -0.322239     -0.324886
  10        0.739864      0.727418
  11        4.878931      4.868789
  12        5.662334      5.643851
  13        6.349883      6.336873
  14        6.520981      6.507637
  15        8.347560      8.339769
  16        8.550717      8.542884
  17        8.878363      8.871769
  18        9.023495      9.016396
 
  0.3125000E+00  0.1875000E+00  0.3816392E-15  0.5859375E-02
   1      -30.837011    -30.840382
   2      -10.795885    -10.801785
   3      -10.632334    -10.637897
   4      -10.626573    -10.632135
   5       -0.558498     -0.559981
   6       -0.541383     -0.545190
   7       -0.459174     -0.461682
   8       -0.295566     -0.298135
   9       -0.291154     -0.293683
  10        1.090207      1.077931
  11        4.496197      4.484611
  12        5.420180      5.402300
  13        6.189131      6.176948
  14        6.751329      6.738544
  15        8.353721      8.345160
  16        8.504783      8.495754
  17        9.156626      9.152789
  18        9.265049      9.258372
 
  0.3750000E+00  0.1875000E+00  0.3885781E-15  0.5859375E-02
   1      -30.834756    -30.838123
   2      -10.845479    -10.851474
   3      -10.655081    -10.660682
   4      -10.640025    -10.645601
   5       -0.513476     -0.517216
   6       -0.492971     -0.494389
   7       -0.400858     -0.402926
   8       -0.274792     -0.277309
   9       -0.265152     -0.267584
  10        1.471151      1.459166
  11        4.136360      4.123138
  12        5.245052      5.227999
  13        5.956579      5.945224
  14        7.014578      7.002611
  15        8.490362      8.481282
  16        8.495297      8.485015
  17        9.228293      9.219794
  18        9.452521      9.453422
 
  0.4375000E+00  0.1875000E+00  0.3469447E-15  0.5859375E-02
   1      -30.832844    -30.836207
   2      -10.885422    -10.891489
   3      -10.677593    -10.683237
   4      -10.650070    -10.655654
   5       -0.470999     -0.474582
   6       -0.417350     -0.418699
   7       -0.361004     -0.362747
   8       -0.264463     -0.266983
   9       -0.249783     -0.252152
  10        1.865861      1.854429
  11        3.793190      3.778523
  12        5.150275      5.133956
  13        5.708834      5.698149
  14        7.263521      7.252131
  15        8.592300      8.580959
  16        8.681069      8.671788
  17        9.033636      9.026432
  18        9.167407      9.156676
 
  0.5000000E+00  0.1875000E+00  0.3608225E-15  0.5859375E-02
   1      -30.831582    -30.834944
   2      -10.910527    -10.916635
   3      -10.696080    -10.701764
   4      -10.655230    -10.660813
   5       -0.420095     -0.423451
   6       -0.351198     -0.352775
   7       -0.343277     -0.344564
   8       -0.269394     -0.271980
   9       -0.246280     -0.248628
  10        2.261101      2.250585
  11        3.451911      3.436053
  12        5.109016      5.093007
  13        5.491682      5.481543
  14        7.480312      7.468613
  15        8.585390      8.575098
  16        8.689037      8.677883
  17        8.987565      8.976199
  18        9.034289      9.026716
 