 vasp.5.3.2 13Sep12 (build Mar 19 2013 10:46:17) complex                        
  
 POSCAR found type information on POSCAR  Ac Ag
 POSCAR found :  2 types and       2 ions
 LDA part: xc-table for Pade appr. of Perdew
 POSCAR, INCAR and KPOINTS ok, starting setup
 WARNING: small aliasing (wrap around) errors must be expected
 FFT: planning ...
 WAVECAR not read
 entering main loop
       N       E                     dE             d eps       ncg     rms          rms(c)
DAV:   1     0.116458756431E+03    0.11646E+03   -0.59438E+03 10440   0.612E+02
DAV:   2     0.170437998415E+01   -0.11475E+03   -0.11160E+03 10984   0.218E+02
DAV:   3    -0.715838638082E+01   -0.88628E+01   -0.87363E+01 15412   0.610E+01
DAV:   4    -0.755263089589E+01   -0.39424E+00   -0.39377E+00 18100   0.120E+01
DAV:   5    -0.755602136656E+01   -0.33905E-02   -0.33884E-02 15548   0.896E-01    0.467E+00
RMM:   6    -0.718432143606E+01    0.37170E+00   -0.27751E+00 10715   0.102E+01    0.117E+00
RMM:   7    -0.714486964026E+01    0.39452E-01   -0.91347E-02 10851   0.206E+00    0.739E-01
RMM:   8    -0.713954151233E+01    0.53281E-02   -0.44823E-02 11170   0.118E+00    0.238E-01
RMM:   9    -0.713725155480E+01    0.22900E-02   -0.11592E-02 11213   0.836E-01    0.564E-02
RMM:  10    -0.713747423622E+01   -0.22268E-03   -0.21507E-03 11685   0.227E-01    0.594E-02
RMM:  11    -0.713733102101E+01    0.14322E-03   -0.70251E-04 10472   0.163E-01    0.195E-02
RMM:  12    -0.713733633453E+01   -0.53135E-05   -0.18136E-04  7413   0.702E-02
   1 F= -.71373363E+01 E0= -.71340638E+01  d E =-.713734E+01  mag=     0.0205
 curvature:   0.00 expect dE= 0.000E+00 dE for cont linesearch  0.000E+00
 trial: gam= 0.00000 g(F)=  0.128E-40 g(S)=  0.167E-01 ort = 0.000E+00 (trialstep = 0.100E+01)
 search vector abs. value=  0.167E-01
 bond charge predicted
       N       E                     dE             d eps       ncg     rms          rms(c)
DAV:   1    -0.740119498937E+01   -0.26386E+00   -0.50475E+00 13308   0.185E+01    0.279E+00
RMM:   2    -0.717159426096E+01    0.22960E+00   -0.10972E+00 11033   0.754E+00    0.635E-01
RMM:   3    -0.714664073938E+01    0.24954E-01   -0.52324E-02 11766   0.118E+00    0.346E-01
RMM:   4    -0.713905755314E+01    0.75832E-02   -0.34714E-02 11663   0.884E-01    0.653E-02
RMM:   5    -0.713912145895E+01   -0.63906E-04   -0.36041E-03 12179   0.491E-01    0.399E-02
RMM:   6    -0.713952776082E+01   -0.40630E-03   -0.13549E-03 10948   0.205E-01    0.465E-02
RMM:   7    -0.713973316155E+01   -0.20540E-03   -0.41999E-04  8836   0.108E-01    0.401E-02
RMM:   8    -0.713909818708E+01    0.63497E-03   -0.15532E-03  9083   0.150E-01    0.385E-02
RMM:   9    -0.713897994625E+01    0.11824E-03   -0.78065E-04  8473   0.106E-01    0.347E-02
RMM:  10    -0.713897720091E+01    0.27453E-05   -0.51146E-05  6798   0.539E-02
   2 F= -.71389772E+01 E0= -.71356361E+01  d E =-.164087E-02  mag=    -0.0055
 trial-energy change:   -0.001641  1 .order   -0.003332   -0.016691    0.010027
 step:   0.5301(harm=  0.6247)  dis= 0.00000  next Energy=    -7.141508 (dE=-0.417E-02)
 bond charge predicted
       N       E                     dE             d eps       ncg     rms          rms(c)
DAV:   1    -0.720245787497E+01   -0.63478E-01   -0.11263E+00 14540   0.862E+00    0.140E+00
RMM:   2    -0.715039805184E+01    0.52060E-01   -0.29768E-01 10858   0.382E+00    0.320E-01
RMM:   3    -0.714350931735E+01    0.68887E-02   -0.12464E-02 11077   0.728E-01    0.178E-01
RMM:   4    -0.714167596979E+01    0.18333E-02   -0.10414E-02 11656   0.456E-01    0.351E-02
RMM:   5    -0.714167336474E+01    0.26050E-05   -0.11137E-03 10939   0.270E-01    0.214E-02
RMM:   6    -0.714173545417E+01   -0.62089E-04   -0.29460E-04  8091   0.102E-01
   3 F= -.71417355E+01 E0= -.71384422E+01  d E =-.439912E-02  mag=    -0.0410
 curvature:  -0.29 expect dE=-0.162E-03 dE for cont linesearch -0.162E-03
 trial: gam= 0.00000 g(F)=  0.122E-40 g(S)=  0.554E-03 ort =-0.304E-02 (trialstep = 0.906E+00)
 search vector abs. value=  0.554E-03
 reached required accuracy - stopping structural energy minimisation
