unknown system                          
           1
     0.000000    3.239654    3.239654
     3.239654    0.000000    3.239654
     3.239654    3.239654    0.000000
   Ac   Ag
   1   1
unknown system                          
           1
     0.000000    3.277184    3.277184
     3.277184    0.000000    3.277184
     3.277184    3.277184    0.000000
   Ac   Ag
   1   1
Direct configuration=     1
   0.00000000  0.00000000  0.00000000
   0.50000100  0.50000100  0.50000100
unknown system                          
           1
     0.000000    3.259549    3.259549
     3.259549    0.000000    3.259549
     3.259549    3.259549    0.000000
   Ac   Ag
   1   1
Direct configuration=     2
   0.00000000  0.00000000  0.00000000
   0.50000100  0.50000100  0.50000100
unknown system                          
           1
     0.000000    3.259549    3.259549
     3.259549    0.000000    3.259549
     3.259549    3.259549    0.000000
   Ac   Ag
   1   1
Direct configuration=     3
   0.00000000  0.00000000  0.00000000
   0.50000100  0.50000100  0.50000100
